+ 0.01 0 2 tcp 40 ------- 0 0.0 3.0 0 0
- 0.01 0 2 tcp 40 ------- 0 0.0 3.0 0 0
+ 0.010082 1 2 tcp 40 ------- 0 1.0 5.0 0 1
- 0.010082 1 2 tcp 40 ------- 0 1.0 5.0 0 1
r 0.310003 0 2 tcp 40 ------- 0 0.0 3.0 0 0
+ 0.310003 2 3 tcp 40 ------- 0 0.0 3.0 0 0
- 0.310003 2 3 tcp 40 ------- 0 0.0 3.0 0 0
r 0.310085 1 2 tcp 40 ------- 0 1.0 5.0 0 1
+ 0.310085 2 4 tcp 40 ------- 0 1.0 5.0 0 1
- 0.310085 2 4 tcp 40 ------- 0 1.0 5.0 0 1
r 0.610006 2 3 tcp 40 ------- 0 0.0 3.0 0 0
+ 0.610006 3 2 ack 40 ------- 0 3.0 0.0 0 2
- 0.610006 3 2 ack 40 ------- 0 3.0 0.0 0 2
r 0.610088 2 4 tcp 40 ------- 0 1.0 5.0 0 1
+ 0.610088 4 5 tcp 40 ------- 0 1.0 5.0 0 1
- 0.610088 4 5 tcp 40 ------- 0 1.0 5.0 0 1
r 0.91001 3 2 ack 40 ------- 0 3.0 0.0 0 2
+ 0.91001 2 0 ack 40 ------- 0 3.0 0.0 0 2
- 0.91001 2 0 ack 40 ------- 0 3.0 0.0 0 2
r 0.910091 4 5 tcp 40 ------- 0 1.0 5.0 0 1
+ 0.910091 5 4 ack 40 ------- 0 5.0 1.0 0 3
- 0.910091 5 4 ack 40 ------- 0 5.0 1.0 0 3
r 1.210013 2 0 ack 40 ------- 0 3.0 0.0 0 2
+ 1.210013 0 2 tcp 1040 ------- 0 0.0 3.0 1 4
- 1.210013 0 2 tcp 1040 ------- 0 0.0 3.0 1 4
+ 1.210013 0 2 tcp 1040 ------- 0 0.0 3.0 2 5
r 1.210095 5 4 ack 40 ------- 0 5.0 1.0 0 3
+ 1.210095 4 2 ack 40 ------- 0 5.0 1.0 0 3
- 1.210095 4 2 ack 40 ------- 0 5.0 1.0 0 3
- 1.210096 0 2 tcp 1040 ------- 0 0.0 3.0 2 5
r 1.510096 0 2 tcp 1040 ------- 0 0.0 3.0 1 4
+ 1.510096 2 3 tcp 1040 ------- 0 0.0 3.0 1 4
- 1.510096 2 3 tcp 1040 ------- 0 0.0 3.0 1 4
r 1.510098 4 2 ack 40 ------- 0 5.0 1.0 0 3
+ 1.510098 2 1 ack 40 ------- 0 5.0 1.0 0 3
- 1.510098 2 1 ack 40 ------- 0 5.0 1.0 0 3
r 1.510179 0 2 tcp 1040 ------- 0 0.0 3.0 2 5
+ 1.510179 2 3 tcp 1040 ------- 0 0.0 3.0 2 5
- 1.510179 2 3 tcp 1040 ------- 0 0.0 3.0 2 5
r 1.810101 2 1 ack 40 ------- 0 5.0 1.0 0 3
+ 1.810101 1 2 tcp 1040 ------- 0 1.0 5.0 1 6
- 1.810101 1 2 tcp 1040 ------- 0 1.0 5.0 1 6
+ 1.810101 1 2 tcp 1040 ------- 0 1.0 5.0 2 7
r 1.810179 2 3 tcp 1040 ------- 0 0.0 3.0 1 4
+ 1.810179 3 2 ack 40 ------- 0 3.0 0.0 1 8
- 1.810179 3 2 ack 40 ------- 0 3.0 0.0 1 8
- 1.810184 1 2 tcp 1040 ------- 0 1.0 5.0 2 7
r 1.810262 2 3 tcp 1040 ------- 0 0.0 3.0 2 5
+ 1.810262 3 2 ack 40 ------- 0 3.0 0.0 2 9
- 1.810262 3 2 ack 40 ------- 0 3.0 0.0 2 9
r 2.110182 3 2 ack 40 ------- 0 3.0 0.0 1 8
+ 2.110182 2 0 ack 40 ------- 0 3.0 0.0 1 8
- 2.110182 2 0 ack 40 ------- 0 3.0 0.0 1 8
r 2.110184 1 2 tcp 1040 ------- 0 1.0 5.0 1 6
+ 2.110184 2 4 tcp 1040 ------- 0 1.0 5.0 1 6
- 2.110184 2 4 tcp 1040 ------- 0 1.0 5.0 1 6
r 2.110266 3 2 ack 40 ------- 0 3.0 0.0 2 9
+ 2.110266 2 0 ack 40 ------- 0 3.0 0.0 2 9
- 2.110266 2 0 ack 40 ------- 0 3.0 0.0 2 9
r 2.110267 1 2 tcp 1040 ------- 0 1.0 5.0 2 7
+ 2.110267 2 4 tcp 1040 ------- 0 1.0 5.0 2 7
- 2.110267 2 4 tcp 1040 ------- 0 1.0 5.0 2 7
r 2.410186 2 0 ack 40 ------- 0 3.0 0.0 1 8
+ 2.410186 0 2 tcp 1040 ------- 0 0.0 3.0 3 10
- 2.410186 0 2 tcp 1040 ------- 0 0.0 3.0 3 10
+ 2.410186 0 2 tcp 1040 ------- 0 0.0 3.0 4 11
r 2.410267 2 4 tcp 1040 ------- 0 1.0 5.0 1 6
+ 2.410267 4 5 tcp 1040 ------- 0 1.0 5.0 1 6
- 2.410267 4 5 tcp 1040 ------- 0 1.0 5.0 1 6
r 2.410269 2 0 ack 40 ------- 0 3.0 0.0 2 9
+ 2.410269 0 2 tcp 1040 ------- 0 0.0 3.0 5 12
+ 2.410269 0 2 tcp 1040 ------- 0 0.0 3.0 6 13
- 2.410269 0 2 tcp 1040 ------- 0 0.0 3.0 4 11
r 2.410351 2 4 tcp 1040 ------- 0 1.0 5.0 2 7
+ 2.410351 4 5 tcp 1040 ------- 0 1.0 5.0 2 7
- 2.410351 4 5 tcp 1040 ------- 0 1.0 5.0 2 7
- 2.410352 0 2 tcp 1040 ------- 0 0.0 3.0 5 12
- 2.410435 0 2 tcp 1040 ------- 0 0.0 3.0 6 13
r 2.710269 0 2 tcp 1040 ------- 0 0.0 3.0 3 10
+ 2.710269 2 3 tcp 1040 ------- 0 0.0 3.0 3 10
- 2.710269 2 3 tcp 1040 ------- 0 0.0 3.0 3 10
r 2.710351 4 5 tcp 1040 ------- 0 1.0 5.0 1 6
+ 2.710351 5 4 ack 40 ------- 0 5.0 1.0 1 14
- 2.710351 5 4 ack 40 ------- 0 5.0 1.0 1 14
r 2.710352 0 2 tcp 1040 ------- 0 0.0 3.0 4 11
+ 2.710352 2 3 tcp 1040 ------- 0 0.0 3.0 4 11
- 2.710352 2 3 tcp 1040 ------- 0 0.0 3.0 4 11
r 2.710434 4 5 tcp 1040 ------- 0 1.0 5.0 2 7
+ 2.710434 5 4 ack 40 ------- 0 5.0 1.0 2 15
- 2.710434 5 4 ack 40 ------- 0 5.0 1.0 2 15
r 2.710435 0 2 tcp 1040 ------- 0 0.0 3.0 5 12
+ 2.710435 2 3 tcp 1040 ------- 0 0.0 3.0 5 12
- 2.710435 2 3 tcp 1040 ------- 0 0.0 3.0 5 12
r 2.710518 0 2 tcp 1040 ------- 0 0.0 3.0 6 13
+ 2.710518 2 3 tcp 1040 ------- 0 0.0 3.0 6 13
- 2.710518 2 3 tcp 1040 ------- 0 0.0 3.0 6 13
r 3.010352 2 3 tcp 1040 ------- 0 0.0 3.0 3 10
+ 3.010352 3 2 ack 40 ------- 0 3.0 0.0 3 16
- 3.010352 3 2 ack 40 ------- 0 3.0 0.0 3 16
r 3.010354 5 4 ack 40 ------- 0 5.0 1.0 1 14
+ 3.010354 4 2 ack 40 ------- 0 5.0 1.0 1 14
- 3.010354 4 2 ack 40 ------- 0 5.0 1.0 1 14
r 3.010435 2 3 tcp 1040 ------- 0 0.0 3.0 4 11
+ 3.010435 3 2 ack 40 ------- 0 3.0 0.0 4 17
- 3.010435 3 2 ack 40 ------- 0 3.0 0.0 4 17
r 3.010437 5 4 ack 40 ------- 0 5.0 1.0 2 15
+ 3.010437 4 2 ack 40 ------- 0 5.0 1.0 2 15
- 3.010437 4 2 ack 40 ------- 0 5.0 1.0 2 15
r 3.010518 2 3 tcp 1040 ------- 0 0.0 3.0 5 12
+ 3.010518 3 2 ack 40 ------- 0 3.0 0.0 5 18
- 3.010518 3 2 ack 40 ------- 0 3.0 0.0 5 18
r 3.010602 2 3 tcp 1040 ------- 0 0.0 3.0 6 13
+ 3.010602 3 2 ack 40 ------- 0 3.0 0.0 6 19
- 3.010602 3 2 ack 40 ------- 0 3.0 0.0 6 19
r 3.310355 3 2 ack 40 ------- 0 3.0 0.0 3 16
+ 3.310355 2 0 ack 40 ------- 0 3.0 0.0 3 16
- 3.310355 2 0 ack 40 ------- 0 3.0 0.0 3 16
r 3.310357 4 2 ack 40 ------- 0 5.0 1.0 1 14
+ 3.310357 2 1 ack 40 ------- 0 5.0 1.0 1 14
- 3.310357 2 1 ack 40 ------- 0 5.0 1.0 1 14
r 3.310438 3 2 ack 40 ------- 0 3.0 0.0 4 17
+ 3.310438 2 0 ack 40 ------- 0 3.0 0.0 4 17
- 3.310438 2 0 ack 40 ------- 0 3.0 0.0 4 17
r 3.31044 4 2 ack 40 ------- 0 5.0 1.0 2 15
+ 3.31044 2 1 ack 40 ------- 0 5.0 1.0 2 15
- 3.31044 2 1 ack 40 ------- 0 5.0 1.0 2 15
r 3.310522 3 2 ack 40 ------- 0 3.0 0.0 5 18
+ 3.310522 2 0 ack 40 ------- 0 3.0 0.0 5 18
- 3.310522 2 0 ack 40 ------- 0 3.0 0.0 5 18
r 3.310605 3 2 ack 40 ------- 0 3.0 0.0 6 19
+ 3.310605 2 0 ack 40 ------- 0 3.0 0.0 6 19
- 3.310605 2 0 ack 40 ------- 0 3.0 0.0 6 19
r 3.610358 2 0 ack 40 ------- 0 3.0 0.0 3 16
+ 3.610358 0 2 tcp 1040 ------- 0 0.0 3.0 7 20
- 3.610358 0 2 tcp 1040 ------- 0 0.0 3.0 7 20
+ 3.610358 0 2 tcp 1040 ------- 0 0.0 3.0 8 21
r 3.61036 2 1 ack 40 ------- 0 5.0 1.0 1 14
+ 3.61036 1 2 tcp 1040 ------- 0 1.0 5.0 3 22
- 3.61036 1 2 tcp 1040 ------- 0 1.0 5.0 3 22
+ 3.61036 1 2 tcp 1040 ------- 0 1.0 5.0 4 23
r 3.610442 2 0 ack 40 ------- 0 3.0 0.0 4 17
+ 3.610442 0 2 tcp 1040 ------- 0 0.0 3.0 9 24
+ 3.610442 0 2 tcp 1040 ------- 0 0.0 3.0 10 25
- 3.610442 0 2 tcp 1040 ------- 0 0.0 3.0 8 21
r 3.610443 2 1 ack 40 ------- 0 5.0 1.0 2 15
+ 3.610443 1 2 tcp 1040 ------- 0 1.0 5.0 5 26
+ 3.610443 1 2 tcp 1040 ------- 0 1.0 5.0 6 27
- 3.610443 1 2 tcp 1040 ------- 0 1.0 5.0 4 23
r 3.610525 2 0 ack 40 ------- 0 3.0 0.0 5 18
+ 3.610525 0 2 tcp 1040 ------- 0 0.0 3.0 11 28
+ 3.610525 0 2 tcp 1040 ------- 0 0.0 3.0 12 29
- 3.610525 0 2 tcp 1040 ------- 0 0.0 3.0 9 24
- 3.610527 1 2 tcp 1040 ------- 0 1.0 5.0 5 26
r 3.610608 2 0 ack 40 ------- 0 3.0 0.0 6 19
+ 3.610608 0 2 tcp 1040 ------- 0 0.0 3.0 13 30
+ 3.610608 0 2 tcp 1040 ------- 0 0.0 3.0 14 31
- 3.610608 0 2 tcp 1040 ------- 0 0.0 3.0 10 25
- 3.61061 1 2 tcp 1040 ------- 0 1.0 5.0 6 27
- 3.610691 0 2 tcp 1040 ------- 0 0.0 3.0 11 28
- 3.610774 0 2 tcp 1040 ------- 0 0.0 3.0 12 29
- 3.610858 0 2 tcp 1040 ------- 0 0.0 3.0 13 30
- 3.610941 0 2 tcp 1040 ------- 0 0.0 3.0 14 31
r 3.910442 0 2 tcp 1040 ------- 0 0.0 3.0 7 20
+ 3.910442 2 3 tcp 1040 ------- 0 0.0 3.0 7 20
- 3.910442 2 3 tcp 1040 ------- 0 0.0 3.0 7 20
r 3.910443 1 2 tcp 1040 ------- 0 1.0 5.0 3 22
+ 3.910443 2 4 tcp 1040 ------- 0 1.0 5.0 3 22
- 3.910443 2 4 tcp 1040 ------- 0 1.0 5.0 3 22
r 3.910525 0 2 tcp 1040 ------- 0 0.0 3.0 8 21
+ 3.910525 2 3 tcp 1040 ------- 0 0.0 3.0 8 21
- 3.910525 2 3 tcp 1040 ------- 0 0.0 3.0 8 21
r 3.910527 1 2 tcp 1040 ------- 0 1.0 5.0 4 23
+ 3.910527 2 4 tcp 1040 ------- 0 1.0 5.0 4 23
- 3.910527 2 4 tcp 1040 ------- 0 1.0 5.0 4 23
r 3.910608 0 2 tcp 1040 ------- 0 0.0 3.0 9 24
+ 3.910608 2 3 tcp 1040 ------- 0 0.0 3.0 9 24
- 3.910608 2 3 tcp 1040 ------- 0 0.0 3.0 9 24
r 3.91061 1 2 tcp 1040 ------- 0 1.0 5.0 5 26
+ 3.91061 2 4 tcp 1040 ------- 0 1.0 5.0 5 26
- 3.91061 2 4 tcp 1040 ------- 0 1.0 5.0 5 26
r 3.910691 0 2 tcp 1040 ------- 0 0.0 3.0 10 25
+ 3.910691 2 3 tcp 1040 ------- 0 0.0 3.0 10 25
- 3.910691 2 3 tcp 1040 ------- 0 0.0 3.0 10 25
r 3.910693 1 2 tcp 1040 ------- 0 1.0 5.0 6 27
+ 3.910693 2 4 tcp 1040 ------- 0 1.0 5.0 6 27
- 3.910693 2 4 tcp 1040 ------- 0 1.0 5.0 6 27
r 3.910774 0 2 tcp 1040 ------- 0 0.0 3.0 11 28
+ 3.910774 2 3 tcp 1040 ------- 0 0.0 3.0 11 28
- 3.910774 2 3 tcp 1040 ------- 0 0.0 3.0 11 28
r 3.910858 0 2 tcp 1040 ------- 0 0.0 3.0 12 29
+ 3.910858 2 3 tcp 1040 ------- 0 0.0 3.0 12 29
- 3.910858 2 3 tcp 1040 ------- 0 0.0 3.0 12 29
r 3.910941 0 2 tcp 1040 ------- 0 0.0 3.0 13 30
+ 3.910941 2 3 tcp 1040 ------- 0 0.0 3.0 13 30
- 3.910941 2 3 tcp 1040 ------- 0 0.0 3.0 13 30
r 3.911024 0 2 tcp 1040 ------- 0 0.0 3.0 14 31
+ 3.911024 2 3 tcp 1040 ------- 0 0.0 3.0 14 31
- 3.911024 2 3 tcp 1040 ------- 0 0.0 3.0 14 31
r 4.210525 2 3 tcp 1040 ------- 0 0.0 3.0 7 20
+ 4.210525 3 2 ack 40 ------- 0 3.0 0.0 7 32
- 4.210525 3 2 ack 40 ------- 0 3.0 0.0 7 32
r 4.210527 2 4 tcp 1040 ------- 0 1.0 5.0 3 22
+ 4.210527 4 5 tcp 1040 ------- 0 1.0 5.0 3 22
- 4.210527 4 5 tcp 1040 ------- 0 1.0 5.0 3 22
r 4.210608 2 3 tcp 1040 ------- 0 0.0 3.0 8 21
+ 4.210608 3 2 ack 40 ------- 0 3.0 0.0 8 33
- 4.210608 3 2 ack 40 ------- 0 3.0 0.0 8 33
r 4.21061 2 4 tcp 1040 ------- 0 1.0 5.0 4 23
+ 4.21061 4 5 tcp 1040 ------- 0 1.0 5.0 4 23
- 4.21061 4 5 tcp 1040 ------- 0 1.0 5.0 4 23
r 4.210691 2 3 tcp 1040 ------- 0 0.0 3.0 9 24
+ 4.210691 3 2 ack 40 ------- 0 3.0 0.0 9 34
- 4.210691 3 2 ack 40 ------- 0 3.0 0.0 9 34
r 4.210693 2 4 tcp 1040 ------- 0 1.0 5.0 5 26
+ 4.210693 4 5 tcp 1040 ------- 0 1.0 5.0 5 26
- 4.210693 4 5 tcp 1040 ------- 0 1.0 5.0 5 26
r 4.210774 2 3 tcp 1040 ------- 0 0.0 3.0 10 25
+ 4.210774 3 2 ack 40 ------- 0 3.0 0.0 10 35
- 4.210774 3 2 ack 40 ------- 0 3.0 0.0 10 35
r 4.210776 2 4 tcp 1040 ------- 0 1.0 5.0 6 27
+ 4.210776 4 5 tcp 1040 ------- 0 1.0 5.0 6 27
- 4.210776 4 5 tcp 1040 ------- 0 1.0 5.0 6 27
r 4.210858 2 3 tcp 1040 ------- 0 0.0 3.0 11 28
+ 4.210858 3 2 ack 40 ------- 0 3.0 0.0 11 36
- 4.210858 3 2 ack 40 ------- 0 3.0 0.0 11 36
r 4.210941 2 3 tcp 1040 ------- 0 0.0 3.0 12 29
+ 4.210941 3 2 ack 40 ------- 0 3.0 0.0 12 37
- 4.210941 3 2 ack 40 ------- 0 3.0 0.0 12 37
r 4.211024 2 3 tcp 1040 ------- 0 0.0 3.0 13 30
+ 4.211024 3 2 ack 40 ------- 0 3.0 0.0 13 38
- 4.211024 3 2 ack 40 ------- 0 3.0 0.0 13 38
r 4.211107 2 3 tcp 1040 ------- 0 0.0 3.0 14 31
+ 4.211107 3 2 ack 40 ------- 0 3.0 0.0 14 39
- 4.211107 3 2 ack 40 ------- 0 3.0 0.0 14 39
r 4.510528 3 2 ack 40 ------- 0 3.0 0.0 7 32
+ 4.510528 2 0 ack 40 ------- 0 3.0 0.0 7 32
- 4.510528 2 0 ack 40 ------- 0 3.0 0.0 7 32
r 4.51061 4 5 tcp 1040 ------- 0 1.0 5.0 3 22
+ 4.51061 5 4 ack 40 ------- 0 5.0 1.0 3 40
- 4.51061 5 4 ack 40 ------- 0 5.0 1.0 3 40
r 4.510611 3 2 ack 40 ------- 0 3.0 0.0 8 33
+ 4.510611 2 0 ack 40 ------- 0 3.0 0.0 8 33
- 4.510611 2 0 ack 40 ------- 0 3.0 0.0 8 33
r 4.510693 4 5 tcp 1040 ------- 0 1.0 5.0 4 23
+ 4.510693 5 4 ack 40 ------- 0 5.0 1.0 4 41
- 4.510693 5 4 ack 40 ------- 0 5.0 1.0 4 41
r 4.510694 3 2 ack 40 ------- 0 3.0 0.0 9 34
+ 4.510694 2 0 ack 40 ------- 0 3.0 0.0 9 34
- 4.510694 2 0 ack 40 ------- 0 3.0 0.0 9 34
r 4.510776 4 5 tcp 1040 ------- 0 1.0 5.0 5 26
+ 4.510776 5 4 ack 40 ------- 0 5.0 1.0 5 42
- 4.510776 5 4 ack 40 ------- 0 5.0 1.0 5 42
r 4.510778 3 2 ack 40 ------- 0 3.0 0.0 10 35
+ 4.510778 2 0 ack 40 ------- 0 3.0 0.0 10 35
- 4.510778 2 0 ack 40 ------- 0 3.0 0.0 10 35
r 4.510859 4 5 tcp 1040 ------- 0 1.0 5.0 6 27
+ 4.510859 5 4 ack 40 ------- 0 5.0 1.0 6 43
- 4.510859 5 4 ack 40 ------- 0 5.0 1.0 6 43
r 4.510861 3 2 ack 40 ------- 0 3.0 0.0 11 36
+ 4.510861 2 0 ack 40 ------- 0 3.0 0.0 11 36
- 4.510861 2 0 ack 40 ------- 0 3.0 0.0 11 36
r 4.510944 3 2 ack 40 ------- 0 3.0 0.0 12 37
+ 4.510944 2 0 ack 40 ------- 0 3.0 0.0 12 37
- 4.510944 2 0 ack 40 ------- 0 3.0 0.0 12 37
r 4.511027 3 2 ack 40 ------- 0 3.0 0.0 13 38
+ 4.511027 2 0 ack 40 ------- 0 3.0 0.0 13 38
- 4.511027 2 0 ack 40 ------- 0 3.0 0.0 13 38
r 4.51111 3 2 ack 40 ------- 0 3.0 0.0 14 39
+ 4.51111 2 0 ack 40 ------- 0 3.0 0.0 14 39
- 4.51111 2 0 ack 40 ------- 0 3.0 0.0 14 39
r 4.810531 2 0 ack 40 ------- 0 3.0 0.0 7 32
+ 4.810531 0 2 tcp 1040 ------- 0 0.0 3.0 15 44
- 4.810531 0 2 tcp 1040 ------- 0 0.0 3.0 15 44
+ 4.810531 0 2 tcp 1040 ------- 0 0.0 3.0 16 45
r 4.810613 5 4 ack 40 ------- 0 5.0 1.0 3 40
+ 4.810613 4 2 ack 40 ------- 0 5.0 1.0 3 40
- 4.810613 4 2 ack 40 ------- 0 5.0 1.0 3 40
r 4.810614 2 0 ack 40 ------- 0 3.0 0.0 8 33
+ 4.810614 0 2 tcp 1040 ------- 0 0.0 3.0 17 46
+ 4.810614 0 2 tcp 1040 ------- 0 0.0 3.0 18 47
- 4.810614 0 2 tcp 1040 ------- 0 0.0 3.0 16 45
r 4.810696 5 4 ack 40 ------- 0 5.0 1.0 4 41
+ 4.810696 4 2 ack 40 ------- 0 5.0 1.0 4 41
- 4.810696 4 2 ack 40 ------- 0 5.0 1.0 4 41
r 4.810698 2 0 ack 40 ------- 0 3.0 0.0 9 34
+ 4.810698 0 2 tcp 1040 ------- 0 0.0 3.0 19 48
+ 4.810698 0 2 tcp 1040 ------- 0 0.0 3.0 20 49
- 4.810698 0 2 tcp 1040 ------- 0 0.0 3.0 17 46
r 4.810779 5 4 ack 40 ------- 0 5.0 1.0 5 42
+ 4.810779 4 2 ack 40 ------- 0 5.0 1.0 5 42
- 4.810779 4 2 ack 40 ------- 0 5.0 1.0 5 42
- 4.810781 0 2 tcp 1040 ------- 0 0.0 3.0 18 47
r 4.810781 2 0 ack 40 ------- 0 3.0 0.0 10 35
+ 4.810781 0 2 tcp 1040 ------- 0 0.0 3.0 21 50
+ 4.810781 0 2 tcp 1040 ------- 0 0.0 3.0 22 51
r 4.810863 5 4 ack 40 ------- 0 5.0 1.0 6 43
+ 4.810863 4 2 ack 40 ------- 0 5.0 1.0 6 43
- 4.810863 4 2 ack 40 ------- 0 5.0 1.0 6 43
- 4.810864 0 2 tcp 1040 ------- 0 0.0 3.0 19 48
r 4.810864 2 0 ack 40 ------- 0 3.0 0.0 11 36
+ 4.810864 0 2 tcp 1040 ------- 0 0.0 3.0 23 52
+ 4.810864 0 2 tcp 1040 ------- 0 0.0 3.0 24 53
- 4.810947 0 2 tcp 1040 ------- 0 0.0 3.0 20 49
r 4.810947 2 0 ack 40 ------- 0 3.0 0.0 12 37
+ 4.810947 0 2 tcp 1040 ------- 0 0.0 3.0 25 54
+ 4.810947 0 2 tcp 1040 ------- 0 0.0 3.0 26 55
- 4.81103 0 2 tcp 1040 ------- 0 0.0 3.0 21 50
r 4.81103 2 0 ack 40 ------- 0 3.0 0.0 13 38
+ 4.81103 0 2 tcp 1040 ------- 0 0.0 3.0 27 56
+ 4.81103 0 2 tcp 1040 ------- 0 0.0 3.0 28 57
- 4.811114 0 2 tcp 1040 ------- 0 0.0 3.0 22 51
r 4.811114 2 0 ack 40 ------- 0 3.0 0.0 14 39
+ 4.811114 0 2 tcp 1040 ------- 0 0.0 3.0 29 58
+ 4.811114 0 2 tcp 1040 ------- 0 0.0 3.0 30 59
- 4.811197 0 2 tcp 1040 ------- 0 0.0 3.0 23 52
- 4.81128 0 2 tcp 1040 ------- 0 0.0 3.0 24 53
- 4.811363 0 2 tcp 1040 ------- 0 0.0 3.0 25 54
- 4.811446 0 2 tcp 1040 ------- 0 0.0 3.0 26 55
- 4.81153 0 2 tcp 1040 ------- 0 0.0 3.0 27 56
- 4.811613 0 2 tcp 1040 ------- 0 0.0 3.0 28 57
- 4.811696 0 2 tcp 1040 ------- 0 0.0 3.0 29 58
- 4.811779 0 2 tcp 1040 ------- 0 0.0 3.0 30 59
