+ 0.01 0 2 cbr 210 ------- 0 0.0 3.0 0 0
- 0.01 0 2 cbr 210 ------- 0 0.0 3.0 0 0
+ 0.01 1 2 cbr 210 ------- 0 1.0 3.0 0 1
- 0.01 1 2 cbr 210 ------- 0 1.0 3.0 0 1
+ 0.01375 0 2 cbr 210 ------- 0 0.0 3.0 1 2
- 0.01375 0 2 cbr 210 ------- 0 0.0 3.0 1 2
+ 0.01375 1 2 cbr 210 ------- 0 1.0 3.0 1 3
- 0.01375 1 2 cbr 210 ------- 0 1.0 3.0 1 3
+ 0.0175 0 2 cbr 210 ------- 0 0.0 3.0 2 4
- 0.0175 0 2 cbr 210 ------- 0 0.0 3.0 2 4
+ 0.0175 1 2 cbr 210 ------- 0 1.0 3.0 2 5
- 0.0175 1 2 cbr 210 ------- 0 1.0 3.0 2 5
+ 0.02125 0 2 cbr 210 ------- 0 0.0 3.0 3 6
- 0.02125 0 2 cbr 210 ------- 0 0.0 3.0 3 6
+ 0.02125 1 2 cbr 210 ------- 0 1.0 3.0 3 7
- 0.02125 1 2 cbr 210 ------- 0 1.0 3.0 3 7
+ 0.025 0 2 cbr 210 ------- 0 0.0 3.0 4 8
- 0.025 0 2 cbr 210 ------- 0 0.0 3.0 4 8
+ 0.025 1 2 cbr 210 ------- 0 1.0 3.0 4 9
- 0.025 1 2 cbr 210 ------- 0 1.0 3.0 4 9
+ 0.02875 0 2 cbr 210 ------- 0 0.0 3.0 5 10
- 0.02875 0 2 cbr 210 ------- 0 0.0 3.0 5 10
+ 0.02875 1 2 cbr 210 ------- 0 1.0 3.0 5 11
- 0.02875 1 2 cbr 210 ------- 0 1.0 3.0 5 11
+ 0.0325 0 2 cbr 210 ------- 0 0.0 3.0 6 12
- 0.0325 0 2 cbr 210 ------- 0 0.0 3.0 6 12
+ 0.0325 1 2 cbr 210 ------- 0 1.0 3.0 6 13
- 0.0325 1 2 cbr 210 ------- 0 1.0 3.0 6 13
+ 0.03625 0 2 cbr 210 ------- 0 0.0 3.0 7 14
- 0.03625 0 2 cbr 210 ------- 0 0.0 3.0 7 14
+ 0.03625 1 2 cbr 210 ------- 0 1.0 3.0 7 15
- 0.03625 1 2 cbr 210 ------- 0 1.0 3.0 7 15
+ 0.04 0 2 cbr 210 ------- 0 0.0 3.0 8 16
- 0.04 0 2 cbr 210 ------- 0 0.0 3.0 8 16
+ 0.04 1 2 cbr 210 ------- 0 1.0 3.0 8 17
- 0.04 1 2 cbr 210 ------- 0 1.0 3.0 8 17
+ 0.04375 0 2 cbr 210 ------- 0 0.0 3.0 9 18
- 0.04375 0 2 cbr 210 ------- 0 0.0 3.0 9 18
+ 0.04375 1 2 cbr 210 ------- 0 1.0 3.0 9 19
- 0.04375 1 2 cbr 210 ------- 0 1.0 3.0 9 19
+ 0.0475 0 2 cbr 210 ------- 0 0.0 3.0 10 20
- 0.0475 0 2 cbr 210 ------- 0 0.0 3.0 10 20
+ 0.0475 1 2 cbr 210 ------- 0 1.0 3.0 10 21
- 0.0475 1 2 cbr 210 ------- 0 1.0 3.0 10 21
+ 0.05125 0 2 cbr 210 ------- 0 0.0 3.0 11 22
- 0.05125 0 2 cbr 210 ------- 0 0.0 3.0 11 22
+ 0.05125 1 2 cbr 210 ------- 0 1.0 3.0 11 23
- 0.05125 1 2 cbr 210 ------- 0 1.0 3.0 11 23
+ 0.055 0 2 cbr 210 ------- 0 0.0 3.0 12 24
- 0.055 0 2 cbr 210 ------- 0 0.0 3.0 12 24
+ 0.055 1 2 cbr 210 ------- 0 1.0 3.0 12 25
- 0.055 1 2 cbr 210 ------- 0 1.0 3.0 12 25
+ 0.05875 0 2 cbr 210 ------- 0 0.0 3.0 13 26
- 0.05875 0 2 cbr 210 ------- 0 0.0 3.0 13 26
+ 0.05875 1 2 cbr 210 ------- 0 1.0 3.0 13 27
- 0.05875 1 2 cbr 210 ------- 0 1.0 3.0 13 27
+ 0.0625 0 2 cbr 210 ------- 0 0.0 3.0 14 28
- 0.0625 0 2 cbr 210 ------- 0 0.0 3.0 14 28
+ 0.0625 1 2 cbr 210 ------- 0 1.0 3.0 14 29
- 0.0625 1 2 cbr 210 ------- 0 1.0 3.0 14 29
+ 0.06625 0 2 cbr 210 ------- 0 0.0 3.0 15 30
- 0.06625 0 2 cbr 210 ------- 0 0.0 3.0 15 30
+ 0.06625 1 2 cbr 210 ------- 0 1.0 3.0 15 31
- 0.06625 1 2 cbr 210 ------- 0 1.0 3.0 15 31
+ 0.07 0 2 cbr 210 ------- 0 0.0 3.0 16 32
- 0.07 0 2 cbr 210 ------- 0 0.0 3.0 16 32
+ 0.07 1 2 cbr 210 ------- 0 1.0 3.0 16 33
- 0.07 1 2 cbr 210 ------- 0 1.0 3.0 16 33
+ 0.07375 0 2 cbr 210 ------- 0 0.0 3.0 17 34
- 0.07375 0 2 cbr 210 ------- 0 0.0 3.0 17 34
+ 0.07375 1 2 cbr 210 ------- 0 1.0 3.0 17 35
- 0.07375 1 2 cbr 210 ------- 0 1.0 3.0 17 35
+ 0.0775 0 2 cbr 210 ------- 0 0.0 3.0 18 36
- 0.0775 0 2 cbr 210 ------- 0 0.0 3.0 18 36
+ 0.0775 1 2 cbr 210 ------- 0 1.0 3.0 18 37
- 0.0775 1 2 cbr 210 ------- 0 1.0 3.0 18 37
+ 0.08125 0 2 cbr 210 ------- 0 0.0 3.0 19 38
- 0.08125 0 2 cbr 210 ------- 0 0.0 3.0 19 38
+ 0.08125 1 2 cbr 210 ------- 0 1.0 3.0 19 39
- 0.08125 1 2 cbr 210 ------- 0 1.0 3.0 19 39
+ 0.085 0 2 cbr 210 ------- 0 0.0 3.0 20 40
- 0.085 0 2 cbr 210 ------- 0 0.0 3.0 20 40
+ 0.085 1 2 cbr 210 ------- 0 1.0 3.0 20 41
- 0.085 1 2 cbr 210 ------- 0 1.0 3.0 20 41
+ 0.08875 0 2 cbr 210 ------- 0 0.0 3.0 21 42
- 0.08875 0 2 cbr 210 ------- 0 0.0 3.0 21 42
+ 0.08875 1 2 cbr 210 ------- 0 1.0 3.0 21 43
- 0.08875 1 2 cbr 210 ------- 0 1.0 3.0 21 43
+ 0.0925 0 2 cbr 210 ------- 0 0.0 3.0 22 44
- 0.0925 0 2 cbr 210 ------- 0 0.0 3.0 22 44
+ 0.0925 1 2 cbr 210 ------- 0 1.0 3.0 22 45
- 0.0925 1 2 cbr 210 ------- 0 1.0 3.0 22 45
+ 0.09625 0 2 cbr 210 ------- 0 0.0 3.0 23 46
- 0.09625 0 2 cbr 210 ------- 0 0.0 3.0 23 46
+ 0.09625 1 2 cbr 210 ------- 0 1.0 3.0 23 47
- 0.09625 1 2 cbr 210 ------- 0 1.0 3.0 23 47
+ 0.1 0 2 cbr 210 ------- 0 0.0 3.0 24 48
- 0.1 0 2 cbr 210 ------- 0 0.0 3.0 24 48
+ 0.1 1 2 cbr 210 ------- 0 1.0 3.0 24 49
- 0.1 1 2 cbr 210 ------- 0 1.0 3.0 24 49
+ 0.10375 0 2 cbr 210 ------- 0 0.0 3.0 25 50
- 0.10375 0 2 cbr 210 ------- 0 0.0 3.0 25 50
+ 0.10375 1 2 cbr 210 ------- 0 1.0 3.0 25 51
- 0.10375 1 2 cbr 210 ------- 0 1.0 3.0 25 51
+ 0.1075 0 2 cbr 210 ------- 0 0.0 3.0 26 52
- 0.1075 0 2 cbr 210 ------- 0 0.0 3.0 26 52
+ 0.1075 1 2 cbr 210 ------- 0 1.0 3.0 26 53
- 0.1075 1 2 cbr 210 ------- 0 1.0 3.0 26 53
+ 0.11125 0 2 cbr 210 ------- 0 0.0 3.0 27 54
- 0.11125 0 2 cbr 210 ------- 0 0.0 3.0 27 54
+ 0.11125 1 2 cbr 210 ------- 0 1.0 3.0 27 55
- 0.11125 1 2 cbr 210 ------- 0 1.0 3.0 27 55
+ 0.115 0 2 cbr 210 ------- 0 0.0 3.0 28 56
- 0.115 0 2 cbr 210 ------- 0 0.0 3.0 28 56
+ 0.115 1 2 cbr 210 ------- 0 1.0 3.0 28 57
- 0.115 1 2 cbr 210 ------- 0 1.0 3.0 28 57
+ 0.11875 0 2 cbr 210 ------- 0 0.0 3.0 29 58
- 0.11875 0 2 cbr 210 ------- 0 0.0 3.0 29 58
+ 0.11875 1 2 cbr 210 ------- 0 1.0 3.0 29 59
- 0.11875 1 2 cbr 210 ------- 0 1.0 3.0 29 59
+ 0.1225 0 2 cbr 210 ------- 0 0.0 3.0 30 60
- 0.1225 0 2 cbr 210 ------- 0 0.0 3.0 30 60
+ 0.1225 1 2 cbr 210 ------- 0 1.0 3.0 30 61
- 0.1225 1 2 cbr 210 ------- 0 1.0 3.0 30 61
+ 0.12625 0 2 cbr 210 ------- 0 0.0 3.0 31 62
- 0.12625 0 2 cbr 210 ------- 0 0.0 3.0 31 62
+ 0.12625 1 2 cbr 210 ------- 0 1.0 3.0 31 63
- 0.12625 1 2 cbr 210 ------- 0 1.0 3.0 31 63
+ 0.13 0 2 cbr 210 ------- 0 0.0 3.0 32 64
- 0.13 0 2 cbr 210 ------- 0 0.0 3.0 32 64
+ 0.13 1 2 cbr 210 ------- 0 1.0 3.0 32 65
- 0.13 1 2 cbr 210 ------- 0 1.0 3.0 32 65
+ 0.13375 0 2 cbr 210 ------- 0 0.0 3.0 33 66
- 0.13375 0 2 cbr 210 ------- 0 0.0 3.0 33 66
+ 0.13375 1 2 cbr 210 ------- 0 1.0 3.0 33 67
- 0.13375 1 2 cbr 210 ------- 0 1.0 3.0 33 67
+ 0.1375 0 2 cbr 210 ------- 0 0.0 3.0 34 68
- 0.1375 0 2 cbr 210 ------- 0 0.0 3.0 34 68
+ 0.1375 1 2 cbr 210 ------- 0 1.0 3.0 34 69
- 0.1375 1 2 cbr 210 ------- 0 1.0 3.0 34 69
+ 0.14125 0 2 cbr 210 ------- 0 0.0 3.0 35 70
- 0.14125 0 2 cbr 210 ------- 0 0.0 3.0 35 70
+ 0.14125 1 2 cbr 210 ------- 0 1.0 3.0 35 71
- 0.14125 1 2 cbr 210 ------- 0 1.0 3.0 35 71
+ 0.145 0 2 cbr 210 ------- 0 0.0 3.0 36 72
- 0.145 0 2 cbr 210 ------- 0 0.0 3.0 36 72
+ 0.145 1 2 cbr 210 ------- 0 1.0 3.0 36 73
- 0.145 1 2 cbr 210 ------- 0 1.0 3.0 36 73
+ 0.14875 0 2 cbr 210 ------- 0 0.0 3.0 37 74
- 0.14875 0 2 cbr 210 ------- 0 0.0 3.0 37 74
+ 0.14875 1 2 cbr 210 ------- 0 1.0 3.0 37 75
- 0.14875 1 2 cbr 210 ------- 0 1.0 3.0 37 75
+ 0.1525 0 2 cbr 210 ------- 0 0.0 3.0 38 76
- 0.1525 0 2 cbr 210 ------- 0 0.0 3.0 38 76
+ 0.1525 1 2 cbr 210 ------- 0 1.0 3.0 38 77
- 0.1525 1 2 cbr 210 ------- 0 1.0 3.0 38 77
+ 0.15625 0 2 cbr 210 ------- 0 0.0 3.0 39 78
- 0.15625 0 2 cbr 210 ------- 0 0.0 3.0 39 78
+ 0.15625 1 2 cbr 210 ------- 0 1.0 3.0 39 79
- 0.15625 1 2 cbr 210 ------- 0 1.0 3.0 39 79
+ 0.16 0 2 cbr 210 ------- 0 0.0 3.0 40 80
- 0.16 0 2 cbr 210 ------- 0 0.0 3.0 40 80
+ 0.16 1 2 cbr 210 ------- 0 1.0 3.0 40 81
- 0.16 1 2 cbr 210 ------- 0 1.0 3.0 40 81
+ 0.16375 0 2 cbr 210 ------- 0 0.0 3.0 41 82
- 0.16375 0 2 cbr 210 ------- 0 0.0 3.0 41 82
+ 0.16375 1 2 cbr 210 ------- 0 1.0 3.0 41 83
- 0.16375 1 2 cbr 210 ------- 0 1.0 3.0 41 83
+ 0.1675 0 2 cbr 210 ------- 0 0.0 3.0 42 84
- 0.1675 0 2 cbr 210 ------- 0 0.0 3.0 42 84
+ 0.1675 1 2 cbr 210 ------- 0 1.0 3.0 42 85
- 0.1675 1 2 cbr 210 ------- 0 1.0 3.0 42 85
+ 0.17125 0 2 cbr 210 ------- 0 0.0 3.0 43 86
- 0.17125 0 2 cbr 210 ------- 0 0.0 3.0 43 86
+ 0.17125 1 2 cbr 210 ------- 0 1.0 3.0 43 87
- 0.17125 1 2 cbr 210 ------- 0 1.0 3.0 43 87
+ 0.175 0 2 cbr 210 ------- 0 0.0 3.0 44 88
- 0.175 0 2 cbr 210 ------- 0 0.0 3.0 44 88
+ 0.175 1 2 cbr 210 ------- 0 1.0 3.0 44 89
- 0.175 1 2 cbr 210 ------- 0 1.0 3.0 44 89
+ 0.17875 0 2 cbr 210 ------- 0 0.0 3.0 45 90
- 0.17875 0 2 cbr 210 ------- 0 0.0 3.0 45 90
+ 0.17875 1 2 cbr 210 ------- 0 1.0 3.0 45 91
- 0.17875 1 2 cbr 210 ------- 0 1.0 3.0 45 91
+ 0.1825 0 2 cbr 210 ------- 0 0.0 3.0 46 92
- 0.1825 0 2 cbr 210 ------- 0 0.0 3.0 46 92
+ 0.1825 1 2 cbr 210 ------- 0 1.0 3.0 46 93
- 0.1825 1 2 cbr 210 ------- 0 1.0 3.0 46 93
+ 0.18625 0 2 cbr 210 ------- 0 0.0 3.0 47 94
- 0.18625 0 2 cbr 210 ------- 0 0.0 3.0 47 94
+ 0.18625 1 2 cbr 210 ------- 0 1.0 3.0 47 95
- 0.18625 1 2 cbr 210 ------- 0 1.0 3.0 47 95
+ 0.19 0 2 cbr 210 ------- 0 0.0 3.0 48 96
- 0.19 0 2 cbr 210 ------- 0 0.0 3.0 48 96
+ 0.19 1 2 cbr 210 ------- 0 1.0 3.0 48 97
- 0.19 1 2 cbr 210 ------- 0 1.0 3.0 48 97
+ 0.19375 0 2 cbr 210 ------- 0 0.0 3.0 49 98
- 0.19375 0 2 cbr 210 ------- 0 0.0 3.0 49 98
+ 0.19375 1 2 cbr 210 ------- 0 1.0 3.0 49 99
- 0.19375 1 2 cbr 210 ------- 0 1.0 3.0 49 99
+ 0.1975 0 2 cbr 210 ------- 0 0.0 3.0 50 100
- 0.1975 0 2 cbr 210 ------- 0 0.0 3.0 50 100
+ 0.1975 1 2 cbr 210 ------- 0 1.0 3.0 50 101
- 0.1975 1 2 cbr 210 ------- 0 1.0 3.0 50 101
+ 0.20125 0 2 cbr 210 ------- 0 0.0 3.0 51 102
- 0.20125 0 2 cbr 210 ------- 0 0.0 3.0 51 102
+ 0.20125 1 2 cbr 210 ------- 0 1.0 3.0 51 103
- 0.20125 1 2 cbr 210 ------- 0 1.0 3.0 51 103
+ 0.205 0 2 cbr 210 ------- 0 0.0 3.0 52 104
- 0.205 0 2 cbr 210 ------- 0 0.0 3.0 52 104
+ 0.205 1 2 cbr 210 ------- 0 1.0 3.0 52 105
- 0.205 1 2 cbr 210 ------- 0 1.0 3.0 52 105
+ 0.20875 0 2 cbr 210 ------- 0 0.0 3.0 53 106
- 0.20875 0 2 cbr 210 ------- 0 0.0 3.0 53 106
+ 0.20875 1 2 cbr 210 ------- 0 1.0 3.0 53 107
- 0.20875 1 2 cbr 210 ------- 0 1.0 3.0 53 107
+ 0.2125 0 2 cbr 210 ------- 0 0.0 3.0 54 108
- 0.2125 0 2 cbr 210 ------- 0 0.0 3.0 54 108
+ 0.2125 1 2 cbr 210 ------- 0 1.0 3.0 54 109
- 0.2125 1 2 cbr 210 ------- 0 1.0 3.0 54 109
+ 0.21625 0 2 cbr 210 ------- 0 0.0 3.0 55 110
- 0.21625 0 2 cbr 210 ------- 0 0.0 3.0 55 110
+ 0.21625 1 2 cbr 210 ------- 0 1.0 3.0 55 111
- 0.21625 1 2 cbr 210 ------- 0 1.0 3.0 55 111
+ 0.22 0 2 cbr 210 ------- 0 0.0 3.0 56 112
- 0.22 0 2 cbr 210 ------- 0 0.0 3.0 56 112
+ 0.22 1 2 cbr 210 ------- 0 1.0 3.0 56 113
- 0.22 1 2 cbr 210 ------- 0 1.0 3.0 56 113
+ 0.22375 0 2 cbr 210 ------- 0 0.0 3.0 57 114
- 0.22375 0 2 cbr 210 ------- 0 0.0 3.0 57 114
+ 0.22375 1 2 cbr 210 ------- 0 1.0 3.0 57 115
- 0.22375 1 2 cbr 210 ------- 0 1.0 3.0 57 115
+ 0.2275 0 2 cbr 210 ------- 0 0.0 3.0 58 116
- 0.2275 0 2 cbr 210 ------- 0 0.0 3.0 58 116
+ 0.2275 1 2 cbr 210 ------- 0 1.0 3.0 58 117
- 0.2275 1 2 cbr 210 ------- 0 1.0 3.0 58 117
+ 0.23125 0 2 cbr 210 ------- 0 0.0 3.0 59 118
- 0.23125 0 2 cbr 210 ------- 0 0.0 3.0 59 118
+ 0.23125 1 2 cbr 210 ------- 0 1.0 3.0 59 119
- 0.23125 1 2 cbr 210 ------- 0 1.0 3.0 59 119
+ 0.235 0 2 cbr 210 ------- 0 0.0 3.0 60 120
- 0.235 0 2 cbr 210 ------- 0 0.0 3.0 60 120
+ 0.235 1 2 cbr 210 ------- 0 1.0 3.0 60 121
- 0.235 1 2 cbr 210 ------- 0 1.0 3.0 60 121
+ 0.23875 0 2 cbr 210 ------- 0 0.0 3.0 61 122
- 0.23875 0 2 cbr 210 ------- 0 0.0 3.0 61 122
+ 0.23875 1 2 cbr 210 ------- 0 1.0 3.0 61 123
- 0.23875 1 2 cbr 210 ------- 0 1.0 3.0 61 123
+ 0.2425 0 2 cbr 210 ------- 0 0.0 3.0 62 124
- 0.2425 0 2 cbr 210 ------- 0 0.0 3.0 62 124
+ 0.2425 1 2 cbr 210 ------- 0 1.0 3.0 62 125
- 0.2425 1 2 cbr 210 ------- 0 1.0 3.0 62 125
+ 0.24625 0 2 cbr 210 ------- 0 0.0 3.0 63 126
- 0.24625 0 2 cbr 210 ------- 0 0.0 3.0 63 126
+ 0.24625 1 2 cbr 210 ------- 0 1.0 3.0 63 127
- 0.24625 1 2 cbr 210 ------- 0 1.0 3.0 63 127
+ 0.25 0 2 cbr 210 ------- 0 0.0 3.0 64 128
- 0.25 0 2 cbr 210 ------- 0 0.0 3.0 64 128
+ 0.25 1 2 cbr 210 ------- 0 1.0 3.0 64 129
- 0.25 1 2 cbr 210 ------- 0 1.0 3.0 64 129
+ 0.25375 0 2 cbr 210 ------- 0 0.0 3.0 65 130
- 0.25375 0 2 cbr 210 ------- 0 0.0 3.0 65 130
+ 0.25375 1 2 cbr 210 ------- 0 1.0 3.0 65 131
- 0.25375 1 2 cbr 210 ------- 0 1.0 3.0 65 131
+ 0.2575 0 2 cbr 210 ------- 0 0.0 3.0 66 132
- 0.2575 0 2 cbr 210 ------- 0 0.0 3.0 66 132
+ 0.2575 1 2 cbr 210 ------- 0 1.0 3.0 66 133
- 0.2575 1 2 cbr 210 ------- 0 1.0 3.0 66 133
+ 0.26125 0 2 cbr 210 ------- 0 0.0 3.0 67 134
- 0.26125 0 2 cbr 210 ------- 0 0.0 3.0 67 134
+ 0.26125 1 2 cbr 210 ------- 0 1.0 3.0 67 135
- 0.26125 1 2 cbr 210 ------- 0 1.0 3.0 67 135
+ 0.265 0 2 cbr 210 ------- 0 0.0 3.0 68 136
- 0.265 0 2 cbr 210 ------- 0 0.0 3.0 68 136
+ 0.265 1 2 cbr 210 ------- 0 1.0 3.0 68 137
- 0.265 1 2 cbr 210 ------- 0 1.0 3.0 68 137
+ 0.26875 0 2 cbr 210 ------- 0 0.0 3.0 69 138
- 0.26875 0 2 cbr 210 ------- 0 0.0 3.0 69 138
+ 0.26875 1 2 cbr 210 ------- 0 1.0 3.0 69 139
- 0.26875 1 2 cbr 210 ------- 0 1.0 3.0 69 139
+ 0.2725 0 2 cbr 210 ------- 0 0.0 3.0 70 140
- 0.2725 0 2 cbr 210 ------- 0 0.0 3.0 70 140
+ 0.2725 1 2 cbr 210 ------- 0 1.0 3.0 70 141
- 0.2725 1 2 cbr 210 ------- 0 1.0 3.0 70 141
+ 0.27625 0 2 cbr 210 ------- 0 0.0 3.0 71 142
- 0.27625 0 2 cbr 210 ------- 0 0.0 3.0 71 142
+ 0.27625 1 2 cbr 210 ------- 0 1.0 3.0 71 143
- 0.27625 1 2 cbr 210 ------- 0 1.0 3.0 71 143
+ 0.28 0 2 cbr 210 ------- 0 0.0 3.0 72 144
- 0.28 0 2 cbr 210 ------- 0 0.0 3.0 72 144
+ 0.28 1 2 cbr 210 ------- 0 1.0 3.0 72 145
- 0.28 1 2 cbr 210 ------- 0 1.0 3.0 72 145
+ 0.28375 0 2 cbr 210 ------- 0 0.0 3.0 73 146
- 0.28375 0 2 cbr 210 ------- 0 0.0 3.0 73 146
+ 0.28375 1 2 cbr 210 ------- 0 1.0 3.0 73 147
- 0.28375 1 2 cbr 210 ------- 0 1.0 3.0 73 147
+ 0.2875 0 2 cbr 210 ------- 0 0.0 3.0 74 148
- 0.2875 0 2 cbr 210 ------- 0 0.0 3.0 74 148
+ 0.2875 1 2 cbr 210 ------- 0 1.0 3.0 74 149
- 0.2875 1 2 cbr 210 ------- 0 1.0 3.0 74 149
+ 0.29125 0 2 cbr 210 ------- 0 0.0 3.0 75 150
- 0.29125 0 2 cbr 210 ------- 0 0.0 3.0 75 150
+ 0.29125 1 2 cbr 210 ------- 0 1.0 3.0 75 151
- 0.29125 1 2 cbr 210 ------- 0 1.0 3.0 75 151
+ 0.295 0 2 cbr 210 ------- 0 0.0 3.0 76 152
- 0.295 0 2 cbr 210 ------- 0 0.0 3.0 76 152
+ 0.295 1 2 cbr 210 ------- 0 1.0 3.0 76 153
- 0.295 1 2 cbr 210 ------- 0 1.0 3.0 76 153
+ 0.29875 0 2 cbr 210 ------- 0 0.0 3.0 77 154
- 0.29875 0 2 cbr 210 ------- 0 0.0 3.0 77 154
+ 0.29875 1 2 cbr 210 ------- 0 1.0 3.0 77 155
- 0.29875 1 2 cbr 210 ------- 0 1.0 3.0 77 155
+ 0.3025 0 2 cbr 210 ------- 0 0.0 3.0 78 156
- 0.3025 0 2 cbr 210 ------- 0 0.0 3.0 78 156
+ 0.3025 1 2 cbr 210 ------- 0 1.0 3.0 78 157
- 0.3025 1 2 cbr 210 ------- 0 1.0 3.0 78 157
+ 0.30625 0 2 cbr 210 ------- 0 0.0 3.0 79 158
- 0.30625 0 2 cbr 210 ------- 0 0.0 3.0 79 158
+ 0.30625 1 2 cbr 210 ------- 0 1.0 3.0 79 159
- 0.30625 1 2 cbr 210 ------- 0 1.0 3.0 79 159
+ 0.31 0 2 cbr 210 ------- 0 0.0 3.0 80 160
- 0.31 0 2 cbr 210 ------- 0 0.0 3.0 80 160
+ 0.31 1 2 cbr 210 ------- 0 1.0 3.0 80 161
- 0.31 1 2 cbr 210 ------- 0 1.0 3.0 80 161
r 0.310168 0 2 cbr 210 ------- 0 0.0 3.0 0 0
+ 0.310168 2 3 cbr 210 ------- 0 0.0 3.0 0 0
- 0.310168 2 3 cbr 210 ------- 0 0.0 3.0 0 0
r 0.310168 1 2 cbr 210 ------- 0 1.0 3.0 0 1
+ 0.310168 2 3 cbr 210 ------- 0 1.0 3.0 0 1
- 0.311848 2 3 cbr 210 ------- 0 1.0 3.0 0 1
+ 0.31375 0 2 cbr 210 ------- 0 0.0 3.0 81 162
- 0.31375 0 2 cbr 210 ------- 0 0.0 3.0 81 162
+ 0.31375 1 2 cbr 210 ------- 0 1.0 3.0 81 163
- 0.31375 1 2 cbr 210 ------- 0 1.0 3.0 81 163
r 0.313918 0 2 cbr 210 ------- 0 0.0 3.0 1 2
+ 0.313918 2 3 cbr 210 ------- 0 0.0 3.0 1 2
- 0.313918 2 3 cbr 210 ------- 0 0.0 3.0 1 2
r 0.313918 1 2 cbr 210 ------- 0 1.0 3.0 1 3
+ 0.313918 2 3 cbr 210 ------- 0 1.0 3.0 1 3
- 0.315598 2 3 cbr 210 ------- 0 1.0 3.0 1 3
+ 0.3175 0 2 cbr 210 ------- 0 0.0 3.0 82 164
- 0.3175 0 2 cbr 210 ------- 0 0.0 3.0 82 164
+ 0.3175 1 2 cbr 210 ------- 0 1.0 3.0 82 165
- 0.3175 1 2 cbr 210 ------- 0 1.0 3.0 82 165
r 0.317668 0 2 cbr 210 ------- 0 0.0 3.0 2 4
+ 0.317668 2 3 cbr 210 ------- 0 0.0 3.0 2 4
- 0.317668 2 3 cbr 210 ------- 0 0.0 3.0 2 4
r 0.317668 1 2 cbr 210 ------- 0 1.0 3.0 2 5
+ 0.317668 2 3 cbr 210 ------- 0 1.0 3.0 2 5
- 0.319348 2 3 cbr 210 ------- 0 1.0 3.0 2 5
+ 0.32125 0 2 cbr 210 ------- 0 0.0 3.0 83 166
- 0.32125 0 2 cbr 210 ------- 0 0.0 3.0 83 166
+ 0.32125 1 2 cbr 210 ------- 0 1.0 3.0 83 167
- 0.32125 1 2 cbr 210 ------- 0 1.0 3.0 83 167
r 0.321418 0 2 cbr 210 ------- 0 0.0 3.0 3 6
+ 0.321418 2 3 cbr 210 ------- 0 0.0 3.0 3 6
- 0.321418 2 3 cbr 210 ------- 0 0.0 3.0 3 6
r 0.321418 1 2 cbr 210 ------- 0 1.0 3.0 3 7
+ 0.321418 2 3 cbr 210 ------- 0 1.0 3.0 3 7
- 0.323098 2 3 cbr 210 ------- 0 1.0 3.0 3 7
+ 0.325 0 2 cbr 210 ------- 0 0.0 3.0 84 168
- 0.325 0 2 cbr 210 ------- 0 0.0 3.0 84 168
+ 0.325 1 2 cbr 210 ------- 0 1.0 3.0 84 169
- 0.325 1 2 cbr 210 ------- 0 1.0 3.0 84 169
r 0.325168 0 2 cbr 210 ------- 0 0.0 3.0 4 8
+ 0.325168 2 3 cbr 210 ------- 0 0.0 3.0 4 8
- 0.325168 2 3 cbr 210 ------- 0 0.0 3.0 4 8
r 0.325168 1 2 cbr 210 ------- 0 1.0 3.0 4 9
+ 0.325168 2 3 cbr 210 ------- 0 1.0 3.0 4 9
- 0.326848 2 3 cbr 210 ------- 0 1.0 3.0 4 9
+ 0.32875 0 2 cbr 210 ------- 0 0.0 3.0 85 170
- 0.32875 0 2 cbr 210 ------- 0 0.0 3.0 85 170
+ 0.32875 1 2 cbr 210 ------- 0 1.0 3.0 85 171
- 0.32875 1 2 cbr 210 ------- 0 1.0 3.0 85 171
r 0.328918 0 2 cbr 210 ------- 0 0.0 3.0 5 10
+ 0.328918 2 3 cbr 210 ------- 0 0.0 3.0 5 10
- 0.328918 2 3 cbr 210 ------- 0 0.0 3.0 5 10
r 0.328918 1 2 cbr 210 ------- 0 1.0 3.0 5 11
+ 0.328918 2 3 cbr 210 ------- 0 1.0 3.0 5 11
- 0.330598 2 3 cbr 210 ------- 0 1.0 3.0 5 11
+ 0.3325 0 2 cbr 210 ------- 0 0.0 3.0 86 172
- 0.3325 0 2 cbr 210 ------- 0 0.0 3.0 86 172
+ 0.3325 1 2 cbr 210 ------- 0 1.0 3.0 86 173
- 0.3325 1 2 cbr 210 ------- 0 1.0 3.0 86 173
r 0.332668 0 2 cbr 210 ------- 0 0.0 3.0 6 12
+ 0.332668 2 3 cbr 210 ------- 0 0.0 3.0 6 12
- 0.332668 2 3 cbr 210 ------- 0 0.0 3.0 6 12
r 0.332668 1 2 cbr 210 ------- 0 1.0 3.0 6 13
+ 0.332668 2 3 cbr 210 ------- 0 1.0 3.0 6 13
- 0.334348 2 3 cbr 210 ------- 0 1.0 3.0 6 13
+ 0.33625 0 2 cbr 210 ------- 0 0.0 3.0 87 174
- 0.33625 0 2 cbr 210 ------- 0 0.0 3.0 87 174
+ 0.33625 1 2 cbr 210 ------- 0 1.0 3.0 87 175
- 0.33625 1 2 cbr 210 ------- 0 1.0 3.0 87 175
r 0.336418 0 2 cbr 210 ------- 0 0.0 3.0 7 14
+ 0.336418 2 3 cbr 210 ------- 0 0.0 3.0 7 14
- 0.336418 2 3 cbr 210 ------- 0 0.0 3.0 7 14
r 0.336418 1 2 cbr 210 ------- 0 1.0 3.0 7 15
+ 0.336418 2 3 cbr 210 ------- 0 1.0 3.0 7 15
- 0.338098 2 3 cbr 210 ------- 0 1.0 3.0 7 15
+ 0.34 0 2 cbr 210 ------- 0 0.0 3.0 88 176
- 0.34 0 2 cbr 210 ------- 0 0.0 3.0 88 176
+ 0.34 1 2 cbr 210 ------- 0 1.0 3.0 88 177
- 0.34 1 2 cbr 210 ------- 0 1.0 3.0 88 177
r 0.340168 0 2 cbr 210 ------- 0 0.0 3.0 8 16
+ 0.340168 2 3 cbr 210 ------- 0 0.0 3.0 8 16
- 0.340168 2 3 cbr 210 ------- 0 0.0 3.0 8 16
r 0.340168 1 2 cbr 210 ------- 0 1.0 3.0 8 17
+ 0.340168 2 3 cbr 210 ------- 0 1.0 3.0 8 17
- 0.341848 2 3 cbr 210 ------- 0 1.0 3.0 8 17
+ 0.34375 0 2 cbr 210 ------- 0 0.0 3.0 89 178
- 0.34375 0 2 cbr 210 ------- 0 0.0 3.0 89 178
+ 0.34375 1 2 cbr 210 ------- 0 1.0 3.0 89 179
- 0.34375 1 2 cbr 210 ------- 0 1.0 3.0 89 179
r 0.343918 0 2 cbr 210 ------- 0 0.0 3.0 9 18
+ 0.343918 2 3 cbr 210 ------- 0 0.0 3.0 9 18
- 0.343918 2 3 cbr 210 ------- 0 0.0 3.0 9 18
r 0.343918 1 2 cbr 210 ------- 0 1.0 3.0 9 19
+ 0.343918 2 3 cbr 210 ------- 0 1.0 3.0 9 19
- 0.345598 2 3 cbr 210 ------- 0 1.0 3.0 9 19
+ 0.3475 0 2 cbr 210 ------- 0 0.0 3.0 90 180
- 0.3475 0 2 cbr 210 ------- 0 0.0 3.0 90 180
+ 0.3475 1 2 cbr 210 ------- 0 1.0 3.0 90 181
- 0.3475 1 2 cbr 210 ------- 0 1.0 3.0 90 181
r 0.347668 0 2 cbr 210 ------- 0 0.0 3.0 10 20
+ 0.347668 2 3 cbr 210 ------- 0 0.0 3.0 10 20
- 0.347668 2 3 cbr 210 ------- 0 0.0 3.0 10 20
r 0.347668 1 2 cbr 210 ------- 0 1.0 3.0 10 21
+ 0.347668 2 3 cbr 210 ------- 0 1.0 3.0 10 21
- 0.349348 2 3 cbr 210 ------- 0 1.0 3.0 10 21
+ 0.35125 0 2 cbr 210 ------- 0 0.0 3.0 91 182
- 0.35125 0 2 cbr 210 ------- 0 0.0 3.0 91 182
+ 0.35125 1 2 cbr 210 ------- 0 1.0 3.0 91 183
- 0.35125 1 2 cbr 210 ------- 0 1.0 3.0 91 183
r 0.351418 0 2 cbr 210 ------- 0 0.0 3.0 11 22
+ 0.351418 2 3 cbr 210 ------- 0 0.0 3.0 11 22
- 0.351418 2 3 cbr 210 ------- 0 0.0 3.0 11 22
r 0.351418 1 2 cbr 210 ------- 0 1.0 3.0 11 23
+ 0.351418 2 3 cbr 210 ------- 0 1.0 3.0 11 23
- 0.353098 2 3 cbr 210 ------- 0 1.0 3.0 11 23
+ 0.355 0 2 cbr 210 ------- 0 0.0 3.0 92 184
- 0.355 0 2 cbr 210 ------- 0 0.0 3.0 92 184
+ 0.355 1 2 cbr 210 ------- 0 1.0 3.0 92 185
- 0.355 1 2 cbr 210 ------- 0 1.0 3.0 92 185
r 0.355168 0 2 cbr 210 ------- 0 0.0 3.0 12 24
+ 0.355168 2 3 cbr 210 ------- 0 0.0 3.0 12 24
- 0.355168 2 3 cbr 210 ------- 0 0.0 3.0 12 24
r 0.355168 1 2 cbr 210 ------- 0 1.0 3.0 12 25
+ 0.355168 2 3 cbr 210 ------- 0 1.0 3.0 12 25
- 0.356848 2 3 cbr 210 ------- 0 1.0 3.0 12 25
+ 0.35875 0 2 cbr 210 ------- 0 0.0 3.0 93 186
- 0.35875 0 2 cbr 210 ------- 0 0.0 3.0 93 186
+ 0.35875 1 2 cbr 210 ------- 0 1.0 3.0 93 187
- 0.35875 1 2 cbr 210 ------- 0 1.0 3.0 93 187
r 0.358918 0 2 cbr 210 ------- 0 0.0 3.0 13 26
+ 0.358918 2 3 cbr 210 ------- 0 0.0 3.0 13 26
- 0.358918 2 3 cbr 210 ------- 0 0.0 3.0 13 26
r 0.358918 1 2 cbr 210 ------- 0 1.0 3.0 13 27
+ 0.358918 2 3 cbr 210 ------- 0 1.0 3.0 13 27
- 0.360598 2 3 cbr 210 ------- 0 1.0 3.0 13 27
+ 0.3625 0 2 cbr 210 ------- 0 0.0 3.0 94 188
- 0.3625 0 2 cbr 210 ------- 0 0.0 3.0 94 188
+ 0.3625 1 2 cbr 210 ------- 0 1.0 3.0 94 189
- 0.3625 1 2 cbr 210 ------- 0 1.0 3.0 94 189
r 0.362668 0 2 cbr 210 ------- 0 0.0 3.0 14 28
+ 0.362668 2 3 cbr 210 ------- 0 0.0 3.0 14 28
- 0.362668 2 3 cbr 210 ------- 0 0.0 3.0 14 28
r 0.362668 1 2 cbr 210 ------- 0 1.0 3.0 14 29
+ 0.362668 2 3 cbr 210 ------- 0 1.0 3.0 14 29
- 0.364348 2 3 cbr 210 ------- 0 1.0 3.0 14 29
+ 0.36625 0 2 cbr 210 ------- 0 0.0 3.0 95 190
- 0.36625 0 2 cbr 210 ------- 0 0.0 3.0 95 190
+ 0.36625 1 2 cbr 210 ------- 0 1.0 3.0 95 191
- 0.36625 1 2 cbr 210 ------- 0 1.0 3.0 95 191
r 0.366418 0 2 cbr 210 ------- 0 0.0 3.0 15 30
+ 0.366418 2 3 cbr 210 ------- 0 0.0 3.0 15 30
- 0.366418 2 3 cbr 210 ------- 0 0.0 3.0 15 30
r 0.366418 1 2 cbr 210 ------- 0 1.0 3.0 15 31
+ 0.366418 2 3 cbr 210 ------- 0 1.0 3.0 15 31
- 0.368098 2 3 cbr 210 ------- 0 1.0 3.0 15 31
+ 0.37 0 2 cbr 210 ------- 0 0.0 3.0 96 192
- 0.37 0 2 cbr 210 ------- 0 0.0 3.0 96 192
+ 0.37 1 2 cbr 210 ------- 0 1.0 3.0 96 193
- 0.37 1 2 cbr 210 ------- 0 1.0 3.0 96 193
r 0.370168 0 2 cbr 210 ------- 0 0.0 3.0 16 32
+ 0.370168 2 3 cbr 210 ------- 0 0.0 3.0 16 32
- 0.370168 2 3 cbr 210 ------- 0 0.0 3.0 16 32
r 0.370168 1 2 cbr 210 ------- 0 1.0 3.0 16 33
+ 0.370168 2 3 cbr 210 ------- 0 1.0 3.0 16 33
- 0.371848 2 3 cbr 210 ------- 0 1.0 3.0 16 33
+ 0.37375 0 2 cbr 210 ------- 0 0.0 3.0 97 194
- 0.37375 0 2 cbr 210 ------- 0 0.0 3.0 97 194
+ 0.37375 1 2 cbr 210 ------- 0 1.0 3.0 97 195
- 0.37375 1 2 cbr 210 ------- 0 1.0 3.0 97 195
r 0.373918 0 2 cbr 210 ------- 0 0.0 3.0 17 34
+ 0.373918 2 3 cbr 210 ------- 0 0.0 3.0 17 34
- 0.373918 2 3 cbr 210 ------- 0 0.0 3.0 17 34
r 0.373918 1 2 cbr 210 ------- 0 1.0 3.0 17 35
+ 0.373918 2 3 cbr 210 ------- 0 1.0 3.0 17 35
- 0.375598 2 3 cbr 210 ------- 0 1.0 3.0 17 35
+ 0.3775 0 2 cbr 210 ------- 0 0.0 3.0 98 196
- 0.3775 0 2 cbr 210 ------- 0 0.0 3.0 98 196
+ 0.3775 1 2 cbr 210 ------- 0 1.0 3.0 98 197
- 0.3775 1 2 cbr 210 ------- 0 1.0 3.0 98 197
r 0.377668 0 2 cbr 210 ------- 0 0.0 3.0 18 36
+ 0.377668 2 3 cbr 210 ------- 0 0.0 3.0 18 36
- 0.377668 2 3 cbr 210 ------- 0 0.0 3.0 18 36
r 0.377668 1 2 cbr 210 ------- 0 1.0 3.0 18 37
+ 0.377668 2 3 cbr 210 ------- 0 1.0 3.0 18 37
- 0.379348 2 3 cbr 210 ------- 0 1.0 3.0 18 37
+ 0.38125 0 2 cbr 210 ------- 0 0.0 3.0 99 198
- 0.38125 0 2 cbr 210 ------- 0 0.0 3.0 99 198
+ 0.38125 1 2 cbr 210 ------- 0 1.0 3.0 99 199
- 0.38125 1 2 cbr 210 ------- 0 1.0 3.0 99 199
r 0.381418 0 2 cbr 210 ------- 0 0.0 3.0 19 38
+ 0.381418 2 3 cbr 210 ------- 0 0.0 3.0 19 38
- 0.381418 2 3 cbr 210 ------- 0 0.0 3.0 19 38
r 0.381418 1 2 cbr 210 ------- 0 1.0 3.0 19 39
+ 0.381418 2 3 cbr 210 ------- 0 1.0 3.0 19 39
- 0.383098 2 3 cbr 210 ------- 0 1.0 3.0 19 39
+ 0.385 0 2 cbr 210 ------- 0 0.0 3.0 100 200
- 0.385 0 2 cbr 210 ------- 0 0.0 3.0 100 200
+ 0.385 1 2 cbr 210 ------- 0 1.0 3.0 100 201
- 0.385 1 2 cbr 210 ------- 0 1.0 3.0 100 201
r 0.385168 0 2 cbr 210 ------- 0 0.0 3.0 20 40
+ 0.385168 2 3 cbr 210 ------- 0 0.0 3.0 20 40
- 0.385168 2 3 cbr 210 ------- 0 0.0 3.0 20 40
r 0.385168 1 2 cbr 210 ------- 0 1.0 3.0 20 41
+ 0.385168 2 3 cbr 210 ------- 0 1.0 3.0 20 41
- 0.386848 2 3 cbr 210 ------- 0 1.0 3.0 20 41
+ 0.38875 0 2 cbr 210 ------- 0 0.0 3.0 101 202
- 0.38875 0 2 cbr 210 ------- 0 0.0 3.0 101 202
+ 0.38875 1 2 cbr 210 ------- 0 1.0 3.0 101 203
- 0.38875 1 2 cbr 210 ------- 0 1.0 3.0 101 203
r 0.388918 0 2 cbr 210 ------- 0 0.0 3.0 21 42
+ 0.388918 2 3 cbr 210 ------- 0 0.0 3.0 21 42
- 0.388918 2 3 cbr 210 ------- 0 0.0 3.0 21 42
r 0.388918 1 2 cbr 210 ------- 0 1.0 3.0 21 43
+ 0.388918 2 3 cbr 210 ------- 0 1.0 3.0 21 43
- 0.390598 2 3 cbr 210 ------- 0 1.0 3.0 21 43
+ 0.3925 0 2 cbr 210 ------- 0 0.0 3.0 102 204
- 0.3925 0 2 cbr 210 ------- 0 0.0 3.0 102 204
+ 0.3925 1 2 cbr 210 ------- 0 1.0 3.0 102 205
- 0.3925 1 2 cbr 210 ------- 0 1.0 3.0 102 205
r 0.392668 0 2 cbr 210 ------- 0 0.0 3.0 22 44
+ 0.392668 2 3 cbr 210 ------- 0 0.0 3.0 22 44
- 0.392668 2 3 cbr 210 ------- 0 0.0 3.0 22 44
r 0.392668 1 2 cbr 210 ------- 0 1.0 3.0 22 45
+ 0.392668 2 3 cbr 210 ------- 0 1.0 3.0 22 45
- 0.394348 2 3 cbr 210 ------- 0 1.0 3.0 22 45
+ 0.39625 0 2 cbr 210 ------- 0 0.0 3.0 103 206
- 0.39625 0 2 cbr 210 ------- 0 0.0 3.0 103 206
+ 0.39625 1 2 cbr 210 ------- 0 1.0 3.0 103 207
- 0.39625 1 2 cbr 210 ------- 0 1.0 3.0 103 207
r 0.396418 0 2 cbr 210 ------- 0 0.0 3.0 23 46
+ 0.396418 2 3 cbr 210 ------- 0 0.0 3.0 23 46
- 0.396418 2 3 cbr 210 ------- 0 0.0 3.0 23 46
r 0.396418 1 2 cbr 210 ------- 0 1.0 3.0 23 47
+ 0.396418 2 3 cbr 210 ------- 0 1.0 3.0 23 47
- 0.398098 2 3 cbr 210 ------- 0 1.0 3.0 23 47
+ 0.4 0 2 cbr 210 ------- 0 0.0 3.0 104 208
- 0.4 0 2 cbr 210 ------- 0 0.0 3.0 104 208
+ 0.4 1 2 cbr 210 ------- 0 1.0 3.0 104 209
- 0.4 1 2 cbr 210 ------- 0 1.0 3.0 104 209
r 0.400168 0 2 cbr 210 ------- 0 0.0 3.0 24 48
+ 0.400168 2 3 cbr 210 ------- 0 0.0 3.0 24 48
- 0.400168 2 3 cbr 210 ------- 0 0.0 3.0 24 48
r 0.400168 1 2 cbr 210 ------- 0 1.0 3.0 24 49
+ 0.400168 2 3 cbr 210 ------- 0 1.0 3.0 24 49
- 0.401848 2 3 cbr 210 ------- 0 1.0 3.0 24 49
+ 0.40375 0 2 cbr 210 ------- 0 0.0 3.0 105 210
- 0.40375 0 2 cbr 210 ------- 0 0.0 3.0 105 210
+ 0.40375 1 2 cbr 210 ------- 0 1.0 3.0 105 211
- 0.40375 1 2 cbr 210 ------- 0 1.0 3.0 105 211
r 0.403918 0 2 cbr 210 ------- 0 0.0 3.0 25 50
+ 0.403918 2 3 cbr 210 ------- 0 0.0 3.0 25 50
- 0.403918 2 3 cbr 210 ------- 0 0.0 3.0 25 50
r 0.403918 1 2 cbr 210 ------- 0 1.0 3.0 25 51
+ 0.403918 2 3 cbr 210 ------- 0 1.0 3.0 25 51
- 0.405598 2 3 cbr 210 ------- 0 1.0 3.0 25 51
+ 0.4075 0 2 cbr 210 ------- 0 0.0 3.0 106 212
- 0.4075 0 2 cbr 210 ------- 0 0.0 3.0 106 212
+ 0.4075 1 2 cbr 210 ------- 0 1.0 3.0 106 213
- 0.4075 1 2 cbr 210 ------- 0 1.0 3.0 106 213
r 0.407668 0 2 cbr 210 ------- 0 0.0 3.0 26 52
+ 0.407668 2 3 cbr 210 ------- 0 0.0 3.0 26 52
- 0.407668 2 3 cbr 210 ------- 0 0.0 3.0 26 52
r 0.407668 1 2 cbr 210 ------- 0 1.0 3.0 26 53
+ 0.407668 2 3 cbr 210 ------- 0 1.0 3.0 26 53
- 0.409348 2 3 cbr 210 ------- 0 1.0 3.0 26 53
+ 0.41125 0 2 cbr 210 ------- 0 0.0 3.0 107 214
- 0.41125 0 2 cbr 210 ------- 0 0.0 3.0 107 214
+ 0.41125 1 2 cbr 210 ------- 0 1.0 3.0 107 215
- 0.41125 1 2 cbr 210 ------- 0 1.0 3.0 107 215
r 0.411418 0 2 cbr 210 ------- 0 0.0 3.0 27 54
+ 0.411418 2 3 cbr 210 ------- 0 0.0 3.0 27 54
- 0.411418 2 3 cbr 210 ------- 0 0.0 3.0 27 54
r 0.411418 1 2 cbr 210 ------- 0 1.0 3.0 27 55
+ 0.411418 2 3 cbr 210 ------- 0 1.0 3.0 27 55
- 0.413098 2 3 cbr 210 ------- 0 1.0 3.0 27 55
+ 0.415 0 2 cbr 210 ------- 0 0.0 3.0 108 216
- 0.415 0 2 cbr 210 ------- 0 0.0 3.0 108 216
+ 0.415 1 2 cbr 210 ------- 0 1.0 3.0 108 217
- 0.415 1 2 cbr 210 ------- 0 1.0 3.0 108 217
r 0.415168 0 2 cbr 210 ------- 0 0.0 3.0 28 56
+ 0.415168 2 3 cbr 210 ------- 0 0.0 3.0 28 56
- 0.415168 2 3 cbr 210 ------- 0 0.0 3.0 28 56
r 0.415168 1 2 cbr 210 ------- 0 1.0 3.0 28 57
+ 0.415168 2 3 cbr 210 ------- 0 1.0 3.0 28 57
- 0.416848 2 3 cbr 210 ------- 0 1.0 3.0 28 57
+ 0.41875 0 2 cbr 210 ------- 0 0.0 3.0 109 218
- 0.41875 0 2 cbr 210 ------- 0 0.0 3.0 109 218
+ 0.41875 1 2 cbr 210 ------- 0 1.0 3.0 109 219
- 0.41875 1 2 cbr 210 ------- 0 1.0 3.0 109 219
r 0.418918 0 2 cbr 210 ------- 0 0.0 3.0 29 58
+ 0.418918 2 3 cbr 210 ------- 0 0.0 3.0 29 58
- 0.418918 2 3 cbr 210 ------- 0 0.0 3.0 29 58
r 0.418918 1 2 cbr 210 ------- 0 1.0 3.0 29 59
+ 0.418918 2 3 cbr 210 ------- 0 1.0 3.0 29 59
- 0.420598 2 3 cbr 210 ------- 0 1.0 3.0 29 59
+ 0.4225 0 2 cbr 210 ------- 0 0.0 3.0 110 220
- 0.4225 0 2 cbr 210 ------- 0 0.0 3.0 110 220
+ 0.4225 1 2 cbr 210 ------- 0 1.0 3.0 110 221
- 0.4225 1 2 cbr 210 ------- 0 1.0 3.0 110 221
r 0.422668 0 2 cbr 210 ------- 0 0.0 3.0 30 60
+ 0.422668 2 3 cbr 210 ------- 0 0.0 3.0 30 60
- 0.422668 2 3 cbr 210 ------- 0 0.0 3.0 30 60
r 0.422668 1 2 cbr 210 ------- 0 1.0 3.0 30 61
+ 0.422668 2 3 cbr 210 ------- 0 1.0 3.0 30 61
- 0.424348 2 3 cbr 210 ------- 0 1.0 3.0 30 61
+ 0.42625 0 2 cbr 210 ------- 0 0.0 3.0 111 222
- 0.42625 0 2 cbr 210 ------- 0 0.0 3.0 111 222
+ 0.42625 1 2 cbr 210 ------- 0 1.0 3.0 111 223
- 0.42625 1 2 cbr 210 ------- 0 1.0 3.0 111 223
r 0.426418 0 2 cbr 210 ------- 0 0.0 3.0 31 62
+ 0.426418 2 3 cbr 210 ------- 0 0.0 3.0 31 62
- 0.426418 2 3 cbr 210 ------- 0 0.0 3.0 31 62
r 0.426418 1 2 cbr 210 ------- 0 1.0 3.0 31 63
+ 0.426418 2 3 cbr 210 ------- 0 1.0 3.0 31 63
- 0.428098 2 3 cbr 210 ------- 0 1.0 3.0 31 63
+ 0.43 0 2 cbr 210 ------- 0 0.0 3.0 112 224
- 0.43 0 2 cbr 210 ------- 0 0.0 3.0 112 224
+ 0.43 1 2 cbr 210 ------- 0 1.0 3.0 112 225
- 0.43 1 2 cbr 210 ------- 0 1.0 3.0 112 225
r 0.430168 0 2 cbr 210 ------- 0 0.0 3.0 32 64
+ 0.430168 2 3 cbr 210 ------- 0 0.0 3.0 32 64
- 0.430168 2 3 cbr 210 ------- 0 0.0 3.0 32 64
r 0.430168 1 2 cbr 210 ------- 0 1.0 3.0 32 65
+ 0.430168 2 3 cbr 210 ------- 0 1.0 3.0 32 65
- 0.431848 2 3 cbr 210 ------- 0 1.0 3.0 32 65
+ 0.43375 0 2 cbr 210 ------- 0 0.0 3.0 113 226
- 0.43375 0 2 cbr 210 ------- 0 0.0 3.0 113 226
+ 0.43375 1 2 cbr 210 ------- 0 1.0 3.0 113 227