V -t * -v 1.0a5 -a 0
A -t * -n 1 -p 0 -o 0x7fffffff -c 30 -a 1
A -t * -h 1 -m 1073741823 -s 0
n -t * -a 4 -s 4 -S UP -v circle -c black -i black
n -t * -a 0 -s 0 -S UP -v circle -c black -i black
n -t * -a 5 -s 5 -S UP -v circle -c black -i black
n -t * -a 1 -s 1 -S UP -v circle -c black -i black
n -t * -a 6 -s 6 -S UP -v circle -c black -i black
n -t * -a 2 -s 2 -S UP -v circle -c black -i black
n -t * -a 3 -s 3 -S UP -v circle -c black -i black
l -t * -s 3 -d 6 -S UP -r 100000000 -D 0.01 -c black
X -t * -n 8 -r 10Mb -D 10ms -o left
L -t * -s 8 -d 4 -o up
L -t * -s 8 -d 5 -o down
L -t * -s 8 -d 6 -o up
X -t * -n 7 -r 10Mb -D 10ms -o left
L -t * -s 7 -d 0 -o up
L -t * -s 7 -d 1 -o down
L -t * -s 7 -d 2 -o up
L -t * -s 7 -d 3 -o down
h -t 0.01 -s 1 -d 7 -p cbr -e 500 -c 0 -i 0 -a 0 -x {1.0 5.0 0 ------- null}
h -t 0.015 -s 1 -d 7 -p cbr -e 500 -c 0 -i 1 -a 0 -x {1.0 5.0 1 ------- null}
+ -t 0.02 -s 1 -d 7 -p cbr -e 500 -c 0 -i 0 -a 0 -x {1.0 5.0 0 ------- null}
- -t 0.02 -s 1 -d 7 -p cbr -e 500 -c 0 -i 0 -a 0 -x {1.0 5.0 0 ------- null}
h -t 0.02 -s 1 -d 7 -p cbr -e 500 -c 0 -i 0 -a 0 -x {1.0 5.0 -1 ------- null}
h -t 0.02 -s 1 -d 7 -p cbr -e 500 -c 0 -i 2 -a 0 -x {1.0 5.0 2 ------- null}
+ -t 0.025 -s 1 -d 7 -p cbr -e 500 -c 0 -i 1 -a 0 -x {1.0 5.0 1 ------- null}
- -t 0.025 -s 1 -d 7 -p cbr -e 500 -c 0 -i 1 -a 0 -x {1.0 5.0 1 ------- null}
h -t 0.025 -s 1 -d 7 -p cbr -e 500 -c 0 -i 1 -a 0 -x {1.0 5.0 -1 ------- null}
h -t 0.025 -s 1 -d 7 -p cbr -e 500 -c 0 -i 3 -a 0 -x {1.0 5.0 3 ------- null}
+ -t 0.03 -s 1 -d 7 -p cbr -e 500 -c 0 -i 2 -a 0 -x {1.0 5.0 2 ------- null}
- -t 0.03 -s 1 -d 7 -p cbr -e 500 -c 0 -i 2 -a 0 -x {1.0 5.0 2 ------- null}
h -t 0.03 -s 1 -d 7 -p cbr -e 500 -c 0 -i 2 -a 0 -x {1.0 5.0 -1 ------- null}
h -t 0.03 -s 1 -d 7 -p cbr -e 500 -c 0 -i 4 -a 0 -x {1.0 5.0 4 ------- null}
r -t 0.0304152 -s 7 -d 3 -p cbr -e 500 -c 0 -i 0 -a 0 -x {1.0 5.0 0 ------- null}
d -t 0.0304152 -s 3 -d 6 -p cbr -e 500 -c 0 -i 0 -a 0 -x {1.0 5.0 0 ------- null}
+ -t 0.035 -s 1 -d 7 -p cbr -e 500 -c 0 -i 3 -a 0 -x {1.0 5.0 3 ------- null}
- -t 0.035 -s 1 -d 7 -p cbr -e 500 -c 0 -i 3 -a 0 -x {1.0 5.0 3 ------- null}
h -t 0.035 -s 1 -d 7 -p cbr -e 500 -c 0 -i 3 -a 0 -x {1.0 5.0 -1 ------- null}
h -t 0.035 -s 1 -d 7 -p cbr -e 500 -c 0 -i 5 -a 0 -x {1.0 5.0 5 ------- null}
r -t 0.0354152 -s 7 -d 3 -p cbr -e 500 -c 0 -i 1 -a 0 -x {1.0 5.0 1 ------- null}
+ -t 0.0354152 -s 3 -d 6 -p cbr -e 500 -c 0 -i 1 -a 0 -x {1.0 5.0 1 ------- null}
- -t 0.0354152 -s 3 -d 6 -p cbr -e 500 -c 0 -i 1 -a 0 -x {1.0 5.0 1 ------- null}
h -t 0.0354152 -s 3 -d 6 -p cbr -e 500 -c 0 -i 1 -a 0 -x {1.0 5.0 -1 ------- null}
+ -t 0.04 -s 1 -d 7 -p cbr -e 500 -c 0 -i 4 -a 0 -x {1.0 5.0 4 ------- null}
- -t 0.04 -s 1 -d 7 -p cbr -e 500 -c 0 -i 4 -a 0 -x {1.0 5.0 4 ------- null}
h -t 0.04 -s 1 -d 7 -p cbr -e 500 -c 0 -i 4 -a 0 -x {1.0 5.0 -1 ------- null}
h -t 0.04 -s 1 -d 7 -p cbr -e 500 -c 0 -i 6 -a 0 -x {1.0 5.0 6 ------- null}
r -t 0.0404152 -s 7 -d 3 -p cbr -e 500 -c 0 -i 2 -a 0 -x {1.0 5.0 2 ------- null}
d -t 0.0404152 -s 3 -d 6 -p cbr -e 500 -c 0 -i 2 -a 0 -x {1.0 5.0 2 ------- null}
h -t 0.045 -s 1 -d 7 -p cbr -e 500 -c 0 -i 7 -a 0 -x {1.0 5.0 7 ------- null}
+ -t 0.045 -s 1 -d 7 -p cbr -e 500 -c 0 -i 5 -a 0 -x {1.0 5.0 5 ------- null}
- -t 0.045 -s 1 -d 7 -p cbr -e 500 -c 0 -i 5 -a 0 -x {1.0 5.0 5 ------- null}
h -t 0.045 -s 1 -d 7 -p cbr -e 500 -c 0 -i 5 -a 0 -x {1.0 5.0 -1 ------- null}
r -t 0.0454152 -s 7 -d 3 -p cbr -e 500 -c 0 -i 3 -a 0 -x {1.0 5.0 3 ------- null}
d -t 0.0454152 -s 3 -d 6 -p cbr -e 500 -c 0 -i 3 -a 0 -x {1.0 5.0 3 ------- null}
r -t 0.0454552 -s 3 -d 6 -p cbr -e 500 -c 0 -i 1 -a 0 -x {1.0 5.0 1 ------- null}
h -t 0.0454552 -s 6 -d 8 -p cbr -e 500 -c 0 -i 1 -a 0 -x {1.0 5.0 1 ------- null}
h -t 0.05 -s 1 -d 7 -p cbr -e 500 -c 0 -i 8 -a 0 -x {1.0 5.0 8 ------- null}
+ -t 0.05 -s 1 -d 7 -p cbr -e 500 -c 0 -i 6 -a 0 -x {1.0 5.0 6 ------- null}
- -t 0.05 -s 1 -d 7 -p cbr -e 500 -c 0 -i 6 -a 0 -x {1.0 5.0 6 ------- null}
h -t 0.05 -s 1 -d 7 -p cbr -e 500 -c 0 -i 6 -a 0 -x {1.0 5.0 -1 ------- null}
r -t 0.0504152 -s 7 -d 3 -p cbr -e 500 -c 0 -i 4 -a 0 -x {1.0 5.0 4 ------- null}
+ -t 0.0504152 -s 3 -d 6 -p cbr -e 500 -c 0 -i 4 -a 0 -x {1.0 5.0 4 ------- null}
- -t 0.0504152 -s 3 -d 6 -p cbr -e 500 -c 0 -i 4 -a 0 -x {1.0 5.0 4 ------- null}
h -t 0.0504152 -s 3 -d 6 -p cbr -e 500 -c 0 -i 4 -a 0 -x {1.0 5.0 -1 ------- null}
h -t 0.055 -s 1 -d 7 -p cbr -e 500 -c 0 -i 9 -a 0 -x {1.0 5.0 9 ------- null}
+ -t 0.055 -s 1 -d 7 -p cbr -e 500 -c 0 -i 7 -a 0 -x {1.0 5.0 7 ------- null}
- -t 0.055 -s 1 -d 7 -p cbr -e 500 -c 0 -i 7 -a 0 -x {1.0 5.0 7 ------- null}
h -t 0.055 -s 1 -d 7 -p cbr -e 500 -c 0 -i 7 -a 0 -x {1.0 5.0 -1 ------- null}
r -t 0.0554152 -s 7 -d 3 -p cbr -e 500 -c 0 -i 5 -a 0 -x {1.0 5.0 5 ------- null}
+ -t 0.0554152 -s 3 -d 6 -p cbr -e 500 -c 0 -i 5 -a 0 -x {1.0 5.0 5 ------- null}
- -t 0.0554152 -s 3 -d 6 -p cbr -e 500 -c 0 -i 5 -a 0 -x {1.0 5.0 5 ------- null}
h -t 0.0554152 -s 3 -d 6 -p cbr -e 500 -c 0 -i 5 -a 0 -x {1.0 5.0 -1 ------- null}
+ -t 0.0554552 -s 6 -d 8 -p cbr -e 500 -c 0 -i 1 -a 0 -x {1.0 5.0 1 ------- null}
- -t 0.0554552 -s 6 -d 8 -p cbr -e 500 -c 0 -i 1 -a 0 -x {1.0 5.0 1 ------- null}
h -t 0.0554552 -s 6 -d 8 -p cbr -e 500 -c 0 -i 1 -a 0 -x {1.0 5.0 -1 ------- null}
h -t 0.06 -s 1 -d 7 -p cbr -e 500 -c 0 -i 10 -a 0 -x {1.0 5.0 10 ------- null}
+ -t 0.06 -s 1 -d 7 -p cbr -e 500 -c 0 -i 8 -a 0 -x {1.0 5.0 8 ------- null}
- -t 0.06 -s 1 -d 7 -p cbr -e 500 -c 0 -i 8 -a 0 -x {1.0 5.0 8 ------- null}
h -t 0.06 -s 1 -d 7 -p cbr -e 500 -c 0 -i 8 -a 0 -x {1.0 5.0 -1 ------- null}
r -t 0.0604152 -s 7 -d 3 -p cbr -e 500 -c 0 -i 6 -a 0 -x {1.0 5.0 6 ------- null}
+ -t 0.0604152 -s 3 -d 6 -p cbr -e 500 -c 0 -i 6 -a 0 -x {1.0 5.0 6 ------- null}
- -t 0.0604152 -s 3 -d 6 -p cbr -e 500 -c 0 -i 6 -a 0 -x {1.0 5.0 6 ------- null}
h -t 0.0604152 -s 3 -d 6 -p cbr -e 500 -c 0 -i 6 -a 0 -x {1.0 5.0 -1 ------- null}
r -t 0.0604552 -s 3 -d 6 -p cbr -e 500 -c 0 -i 4 -a 0 -x {1.0 5.0 4 ------- null}
h -t 0.0604552 -s 6 -d 8 -p cbr -e 500 -c 0 -i 4 -a 0 -x {1.0 5.0 4 ------- null}
+ -t 0.065 -s 1 -d 7 -p cbr -e 500 -c 0 -i 9 -a 0 -x {1.0 5.0 9 ------- null}
- -t 0.065 -s 1 -d 7 -p cbr -e 500 -c 0 -i 9 -a 0 -x {1.0 5.0 9 ------- null}
h -t 0.065 -s 1 -d 7 -p cbr -e 500 -c 0 -i 9 -a 0 -x {1.0 5.0 -1 ------- null}
h -t 0.065 -s 1 -d 7 -p cbr -e 500 -c 0 -i 11 -a 0 -x {1.0 5.0 11 ------- null}
r -t 0.0654152 -s 7 -d 3 -p cbr -e 500 -c 0 -i 7 -a 0 -x {1.0 5.0 7 ------- null}
+ -t 0.0654152 -s 3 -d 6 -p cbr -e 500 -c 0 -i 7 -a 0 -x {1.0 5.0 7 ------- null}
- -t 0.0654152 -s 3 -d 6 -p cbr -e 500 -c 0 -i 7 -a 0 -x {1.0 5.0 7 ------- null}
h -t 0.0654152 -s 3 -d 6 -p cbr -e 500 -c 0 -i 7 -a 0 -x {1.0 5.0 -1 ------- null}
r -t 0.0654552 -s 3 -d 6 -p cbr -e 500 -c 0 -i 5 -a 0 -x {1.0 5.0 5 ------- null}
h -t 0.0654552 -s 6 -d 8 -p cbr -e 500 -c 0 -i 5 -a 0 -x {1.0 5.0 5 ------- null}
r -t 0.0658704 -s 8 -d 5 -p cbr -e 500 -c 0 -i 1 -a 0 -x {1.0 5.0 1 ------- null}
+ -t 0.07 -s 1 -d 7 -p cbr -e 500 -c 0 -i 10 -a 0 -x {1.0 5.0 10 ------- null}
- -t 0.07 -s 1 -d 7 -p cbr -e 500 -c 0 -i 10 -a 0 -x {1.0 5.0 10 ------- null}
h -t 0.07 -s 1 -d 7 -p cbr -e 500 -c 0 -i 10 -a 0 -x {1.0 5.0 -1 ------- null}
h -t 0.07 -s 1 -d 7 -p cbr -e 500 -c 0 -i 12 -a 0 -x {1.0 5.0 12 ------- null}
r -t 0.0704152 -s 7 -d 3 -p cbr -e 500 -c 0 -i 8 -a 0 -x {1.0 5.0 8 ------- null}
+ -t 0.0704152 -s 3 -d 6 -p cbr -e 500 -c 0 -i 8 -a 0 -x {1.0 5.0 8 ------- null}
- -t 0.0704152 -s 3 -d 6 -p cbr -e 500 -c 0 -i 8 -a 0 -x {1.0 5.0 8 ------- null}
h -t 0.0704152 -s 3 -d 6 -p cbr -e 500 -c 0 -i 8 -a 0 -x {1.0 5.0 -1 ------- null}
r -t 0.0704552 -s 3 -d 6 -p cbr -e 500 -c 0 -i 6 -a 0 -x {1.0 5.0 6 ------- null}
h -t 0.0704552 -s 6 -d 8 -p cbr -e 500 -c 0 -i 6 -a 0 -x {1.0 5.0 6 ------- null}
+ -t 0.0704552 -s 6 -d 8 -p cbr -e 500 -c 0 -i 4 -a 0 -x {1.0 5.0 4 ------- null}
- -t 0.0704552 -s 6 -d 8 -p cbr -e 500 -c 0 -i 4 -a 0 -x {1.0 5.0 4 ------- null}
h -t 0.0704552 -s 6 -d 8 -p cbr -e 500 -c 0 -i 4 -a 0 -x {1.0 5.0 -1 ------- null}
+ -t 0.075 -s 1 -d 7 -p cbr -e 500 -c 0 -i 11 -a 0 -x {1.0 5.0 11 ------- null}
- -t 0.075 -s 1 -d 7 -p cbr -e 500 -c 0 -i 11 -a 0 -x {1.0 5.0 11 ------- null}
h -t 0.075 -s 1 -d 7 -p cbr -e 500 -c 0 -i 11 -a 0 -x {1.0 5.0 -1 ------- null}
h -t 0.075 -s 1 -d 7 -p cbr -e 500 -c 0 -i 13 -a 0 -x {1.0 5.0 13 ------- null}
r -t 0.0754152 -s 7 -d 3 -p cbr -e 500 -c 0 -i 9 -a 0 -x {1.0 5.0 9 ------- null}
+ -t 0.0754152 -s 3 -d 6 -p cbr -e 500 -c 0 -i 9 -a 0 -x {1.0 5.0 9 ------- null}
- -t 0.0754152 -s 3 -d 6 -p cbr -e 500 -c 0 -i 9 -a 0 -x {1.0 5.0 9 ------- null}
h -t 0.0754152 -s 3 -d 6 -p cbr -e 500 -c 0 -i 9 -a 0 -x {1.0 5.0 -1 ------- null}
r -t 0.0754552 -s 3 -d 6 -p cbr -e 500 -c 0 -i 7 -a 0 -x {1.0 5.0 7 ------- null}
h -t 0.0754552 -s 6 -d 8 -p cbr -e 500 -c 0 -i 7 -a 0 -x {1.0 5.0 7 ------- null}
+ -t 0.0754552 -s 6 -d 8 -p cbr -e 500 -c 0 -i 5 -a 0 -x {1.0 5.0 5 ------- null}
- -t 0.0754552 -s 6 -d 8 -p cbr -e 500 -c 0 -i 5 -a 0 -x {1.0 5.0 5 ------- null}
h -t 0.0754552 -s 6 -d 8 -p cbr -e 500 -c 0 -i 5 -a 0 -x {1.0 5.0 -1 ------- null}
+ -t 0.08 -s 1 -d 7 -p cbr -e 500 -c 0 -i 12 -a 0 -x {1.0 5.0 12 ------- null}
- -t 0.08 -s 1 -d 7 -p cbr -e 500 -c 0 -i 12 -a 0 -x {1.0 5.0 12 ------- null}
h -t 0.08 -s 1 -d 7 -p cbr -e 500 -c 0 -i 12 -a 0 -x {1.0 5.0 -1 ------- null}
h -t 0.08 -s 1 -d 7 -p cbr -e 500 -c 0 -i 14 -a 0 -x {1.0 5.0 14 ------- null}
r -t 0.0804152 -s 7 -d 3 -p cbr -e 500 -c 0 -i 10 -a 0 -x {1.0 5.0 10 ------- null}
+ -t 0.0804152 -s 3 -d 6 -p cbr -e 500 -c 0 -i 10 -a 0 -x {1.0 5.0 10 ------- null}
- -t 0.0804152 -s 3 -d 6 -p cbr -e 500 -c 0 -i 10 -a 0 -x {1.0 5.0 10 ------- null}
h -t 0.0804152 -s 3 -d 6 -p cbr -e 500 -c 0 -i 10 -a 0 -x {1.0 5.0 -1 ------- null}
+ -t 0.0804552 -s 6 -d 8 -p cbr -e 500 -c 0 -i 6 -a 0 -x {1.0 5.0 6 ------- null}
- -t 0.0804552 -s 6 -d 8 -p cbr -e 500 -c 0 -i 6 -a 0 -x {1.0 5.0 6 ------- null}
h -t 0.0804552 -s 6 -d 8 -p cbr -e 500 -c 0 -i 6 -a 0 -x {1.0 5.0 -1 ------- null}
r -t 0.0804552 -s 3 -d 6 -p cbr -e 500 -c 0 -i 8 -a 0 -x {1.0 5.0 8 ------- null}
h -t 0.0804552 -s 6 -d 8 -p cbr -e 500 -c 0 -i 8 -a 0 -x {1.0 5.0 8 ------- null}
r -t 0.0808704 -s 8 -d 5 -p cbr -e 500 -c 0 -i 4 -a 0 -x {1.0 5.0 4 ------- null}
+ -t 0.085 -s 1 -d 7 -p cbr -e 500 -c 0 -i 13 -a 0 -x {1.0 5.0 13 ------- null}
- -t 0.085 -s 1 -d 7 -p cbr -e 500 -c 0 -i 13 -a 0 -x {1.0 5.0 13 ------- null}
h -t 0.085 -s 1 -d 7 -p cbr -e 500 -c 0 -i 13 -a 0 -x {1.0 5.0 -1 ------- null}
h -t 0.085 -s 1 -d 7 -p cbr -e 500 -c 0 -i 15 -a 0 -x {1.0 5.0 15 ------- null}
r -t 0.0854152 -s 7 -d 3 -p cbr -e 500 -c 0 -i 11 -a 0 -x {1.0 5.0 11 ------- null}
+ -t 0.0854152 -s 3 -d 6 -p cbr -e 500 -c 0 -i 11 -a 0 -x {1.0 5.0 11 ------- null}
- -t 0.0854152 -s 3 -d 6 -p cbr -e 500 -c 0 -i 11 -a 0 -x {1.0 5.0 11 ------- null}
h -t 0.0854152 -s 3 -d 6 -p cbr -e 500 -c 0 -i 11 -a 0 -x {1.0 5.0 -1 ------- null}
r -t 0.0854552 -s 3 -d 6 -p cbr -e 500 -c 0 -i 9 -a 0 -x {1.0 5.0 9 ------- null}
h -t 0.0854552 -s 6 -d 8 -p cbr -e 500 -c 0 -i 9 -a 0 -x {1.0 5.0 9 ------- null}
+ -t 0.0854552 -s 6 -d 8 -p cbr -e 500 -c 0 -i 7 -a 0 -x {1.0 5.0 7 ------- null}
- -t 0.0854552 -s 6 -d 8 -p cbr -e 500 -c 0 -i 7 -a 0 -x {1.0 5.0 7 ------- null}
h -t 0.0854552 -s 6 -d 8 -p cbr -e 500 -c 0 -i 7 -a 0 -x {1.0 5.0 -1 ------- null}
r -t 0.0858704 -s 8 -d 5 -p cbr -e 500 -c 0 -i 5 -a 0 -x {1.0 5.0 5 ------- null}
+ -t 0.09 -s 1 -d 7 -p cbr -e 500 -c 0 -i 14 -a 0 -x {1.0 5.0 14 ------- null}
- -t 0.09 -s 1 -d 7 -p cbr -e 500 -c 0 -i 14 -a 0 -x {1.0 5.0 14 ------- null}
h -t 0.09 -s 1 -d 7 -p cbr -e 500 -c 0 -i 14 -a 0 -x {1.0 5.0 -1 ------- null}
h -t 0.09 -s 1 -d 7 -p cbr -e 500 -c 0 -i 16 -a 0 -x {1.0 5.0 16 ------- null}
r -t 0.0904152 -s 7 -d 3 -p cbr -e 500 -c 0 -i 12 -a 0 -x {1.0 5.0 12 ------- null}
d -t 0.0904152 -s 3 -d 6 -p cbr -e 500 -c 0 -i 12 -a 0 -x {1.0 5.0 12 ------- null}
r -t 0.0904552 -s 3 -d 6 -p cbr -e 500 -c 0 -i 10 -a 0 -x {1.0 5.0 10 ------- null}
h -t 0.0904552 -s 6 -d 8 -p cbr -e 500 -c 0 -i 10 -a 0 -x {1.0 5.0 10 ------- null}
+ -t 0.0904552 -s 6 -d 8 -p cbr -e 500 -c 0 -i 8 -a 0 -x {1.0 5.0 8 ------- null}
- -t 0.0904552 -s 6 -d 8 -p cbr -e 500 -c 0 -i 8 -a 0 -x {1.0 5.0 8 ------- null}
h -t 0.0904552 -s 6 -d 8 -p cbr -e 500 -c 0 -i 8 -a 0 -x {1.0 5.0 -1 ------- null}
r -t 0.0908704 -s 8 -d 5 -p cbr -e 500 -c 0 -i 6 -a 0 -x {1.0 5.0 6 ------- null}
+ -t 0.095 -s 1 -d 7 -p cbr -e 500 -c 0 -i 15 -a 0 -x {1.0 5.0 15 ------- null}
- -t 0.095 -s 1 -d 7 -p cbr -e 500 -c 0 -i 15 -a 0 -x {1.0 5.0 15 ------- null}
h -t 0.095 -s 1 -d 7 -p cbr -e 500 -c 0 -i 15 -a 0 -x {1.0 5.0 -1 ------- null}
h -t 0.095 -s 1 -d 7 -p cbr -e 500 -c 0 -i 17 -a 0 -x {1.0 5.0 17 ------- null}
r -t 0.0954152 -s 7 -d 3 -p cbr -e 500 -c 0 -i 13 -a 0 -x {1.0 5.0 13 ------- null}
d -t 0.0954152 -s 3 -d 6 -p cbr -e 500 -c 0 -i 13 -a 0 -x {1.0 5.0 13 ------- null}
+ -t 0.0954552 -s 6 -d 8 -p cbr -e 500 -c 0 -i 9 -a 0 -x {1.0 5.0 9 ------- null}
- -t 0.0954552 -s 6 -d 8 -p cbr -e 500 -c 0 -i 9 -a 0 -x {1.0 5.0 9 ------- null}
h -t 0.0954552 -s 6 -d 8 -p cbr -e 500 -c 0 -i 9 -a 0 -x {1.0 5.0 -1 ------- null}
r -t 0.0954552 -s 3 -d 6 -p cbr -e 500 -c 0 -i 11 -a 0 -x {1.0 5.0 11 ------- null}
h -t 0.0954552 -s 6 -d 8 -p cbr -e 500 -c 0 -i 11 -a 0 -x {1.0 5.0 11 ------- null}
r -t 0.0958704 -s 8 -d 5 -p cbr -e 500 -c 0 -i 7 -a 0 -x {1.0 5.0 7 ------- null}
+ -t 0.1 -s 1 -d 7 -p cbr -e 500 -c 0 -i 16 -a 0 -x {1.0 5.0 16 ------- null}
- -t 0.1 -s 1 -d 7 -p cbr -e 500 -c 0 -i 16 -a 0 -x {1.0 5.0 16 ------- null}
h -t 0.1 -s 1 -d 7 -p cbr -e 500 -c 0 -i 16 -a 0 -x {1.0 5.0 -1 ------- null}
h -t 0.1 -s 1 -d 7 -p cbr -e 500 -c 0 -i 18 -a 0 -x {1.0 5.0 18 ------- null}
r -t 0.1004152 -s 7 -d 3 -p cbr -e 500 -c 0 -i 14 -a 0 -x {1.0 5.0 14 ------- null}
+ -t 0.1004152 -s 3 -d 6 -p cbr -e 500 -c 0 -i 14 -a 0 -x {1.0 5.0 14 ------- null}
- -t 0.1004152 -s 3 -d 6 -p cbr -e 500 -c 0 -i 14 -a 0 -x {1.0 5.0 14 ------- null}
h -t 0.1004152 -s 3 -d 6 -p cbr -e 500 -c 0 -i 14 -a 0 -x {1.0 5.0 -1 ------- null}
+ -t 0.1004552 -s 6 -d 8 -p cbr -e 500 -c 0 -i 10 -a 0 -x {1.0 5.0 10 ------- null}
- -t 0.1004552 -s 6 -d 8 -p cbr -e 500 -c 0 -i 10 -a 0 -x {1.0 5.0 10 ------- null}
h -t 0.1004552 -s 6 -d 8 -p cbr -e 500 -c 0 -i 10 -a 0 -x {1.0 5.0 -1 ------- null}
r -t 0.1008704 -s 8 -d 5 -p cbr -e 500 -c 0 -i 8 -a 0 -x {1.0 5.0 8 ------- null}
+ -t 0.105 -s 1 -d 7 -p cbr -e 500 -c 0 -i 17 -a 0 -x {1.0 5.0 17 ------- null}
- -t 0.105 -s 1 -d 7 -p cbr -e 500 -c 0 -i 17 -a 0 -x {1.0 5.0 17 ------- null}
h -t 0.105 -s 1 -d 7 -p cbr -e 500 -c 0 -i 17 -a 0 -x {1.0 5.0 -1 ------- null}
h -t 0.105 -s 1 -d 7 -p cbr -e 500 -c 0 -i 19 -a 0 -x {1.0 5.0 19 ------- null}
r -t 0.1054152 -s 7 -d 3 -p cbr -e 500 -c 0 -i 15 -a 0 -x {1.0 5.0 15 ------- null}
d -t 0.1054152 -s 3 -d 6 -p cbr -e 500 -c 0 -i 15 -a 0 -x {1.0 5.0 15 ------- null}
+ -t 0.1054552 -s 6 -d 8 -p cbr -e 500 -c 0 -i 11 -a 0 -x {1.0 5.0 11 ------- null}
- -t 0.1054552 -s 6 -d 8 -p cbr -e 500 -c 0 -i 11 -a 0 -x {1.0 5.0 11 ------- null}
h -t 0.1054552 -s 6 -d 8 -p cbr -e 500 -c 0 -i 11 -a 0 -x {1.0 5.0 -1 ------- null}
r -t 0.1058704 -s 8 -d 5 -p cbr -e 500 -c 0 -i 9 -a 0 -x {1.0 5.0 9 ------- null}
+ -t 0.11 -s 1 -d 7 -p cbr -e 500 -c 0 -i 18 -a 0 -x {1.0 5.0 18 ------- null}
- -t 0.11 -s 1 -d 7 -p cbr -e 500 -c 0 -i 18 -a 0 -x {1.0 5.0 18 ------- null}
h -t 0.11 -s 1 -d 7 -p cbr -e 500 -c 0 -i 18 -a 0 -x {1.0 5.0 -1 ------- null}
h -t 0.11 -s 1 -d 7 -p cbr -e 500 -c 0 -i 20 -a 0 -x {1.0 5.0 20 ------- null}
r -t 0.1104152 -s 7 -d 3 -p cbr -e 500 -c 0 -i 16 -a 0 -x {1.0 5.0 16 ------- null}
+ -t 0.1104152 -s 3 -d 6 -p cbr -e 500 -c 0 -i 16 -a 0 -x {1.0 5.0 16 ------- null}
- -t 0.1104152 -s 3 -d 6 -p cbr -e 500 -c 0 -i 16 -a 0 -x {1.0 5.0 16 ------- null}
h -t 0.1104152 -s 3 -d 6 -p cbr -e 500 -c 0 -i 16 -a 0 -x {1.0 5.0 -1 ------- null}
r -t 0.1104552 -s 3 -d 6 -p cbr -e 500 -c 0 -i 14 -a 0 -x {1.0 5.0 14 ------- null}
h -t 0.1104552 -s 6 -d 8 -p cbr -e 500 -c 0 -i 14 -a 0 -x {1.0 5.0 14 ------- null}
r -t 0.1108704 -s 8 -d 5 -p cbr -e 500 -c 0 -i 10 -a 0 -x {1.0 5.0 10 ------- null}
+ -t 0.115 -s 1 -d 7 -p cbr -e 500 -c 0 -i 19 -a 0 -x {1.0 5.0 19 ------- null}
- -t 0.115 -s 1 -d 7 -p cbr -e 500 -c 0 -i 19 -a 0 -x {1.0 5.0 19 ------- null}
h -t 0.115 -s 1 -d 7 -p cbr -e 500 -c 0 -i 19 -a 0 -x {1.0 5.0 -1 ------- null}
h -t 0.115 -s 1 -d 7 -p cbr -e 500 -c 0 -i 21 -a 0 -x {1.0 5.0 21 ------- null}
r -t 0.1154152 -s 7 -d 3 -p cbr -e 500 -c 0 -i 17 -a 0 -x {1.0 5.0 17 ------- null}
+ -t 0.1154152 -s 3 -d 6 -p cbr -e 500 -c 0 -i 17 -a 0 -x {1.0 5.0 17 ------- null}
- -t 0.1154152 -s 3 -d 6 -p cbr -e 500 -c 0 -i 17 -a 0 -x {1.0 5.0 17 ------- null}
h -t 0.1154152 -s 3 -d 6 -p cbr -e 500 -c 0 -i 17 -a 0 -x {1.0 5.0 -1 ------- null}
r -t 0.1158704 -s 8 -d 5 -p cbr -e 500 -c 0 -i 11 -a 0 -x {1.0 5.0 11 ------- null}
+ -t 0.12 -s 1 -d 7 -p cbr -e 500 -c 0 -i 20 -a 0 -x {1.0 5.0 20 ------- null}
- -t 0.12 -s 1 -d 7 -p cbr -e 500 -c 0 -i 20 -a 0 -x {1.0 5.0 20 ------- null}
h -t 0.12 -s 1 -d 7 -p cbr -e 500 -c 0 -i 20 -a 0 -x {1.0 5.0 -1 ------- null}
h -t 0.12 -s 1 -d 7 -p cbr -e 500 -c 0 -i 22 -a 0 -x {1.0 5.0 22 ------- null}
r -t 0.1204152 -s 7 -d 3 -p cbr -e 500 -c 0 -i 18 -a 0 -x {1.0 5.0 18 ------- null}
d -t 0.1204152 -s 3 -d 6 -p cbr -e 500 -c 0 -i 18 -a 0 -x {1.0 5.0 18 ------- null}
+ -t 0.1204552 -s 6 -d 8 -p cbr -e 500 -c 0 -i 14 -a 0 -x {1.0 5.0 14 ------- null}
- -t 0.1204552 -s 6 -d 8 -p cbr -e 500 -c 0 -i 14 -a 0 -x {1.0 5.0 14 ------- null}
h -t 0.1204552 -s 6 -d 8 -p cbr -e 500 -c 0 -i 14 -a 0 -x {1.0 5.0 -1 ------- null}
r -t 0.1204552 -s 3 -d 6 -p cbr -e 500 -c 0 -i 16 -a 0 -x {1.0 5.0 16 ------- null}
h -t 0.1204552 -s 6 -d 8 -p cbr -e 500 -c 0 -i 16 -a 0 -x {1.0 5.0 16 ------- null}
+ -t 0.125 -s 1 -d 7 -p cbr -e 500 -c 0 -i 21 -a 0 -x {1.0 5.0 21 ------- null}
- -t 0.125 -s 1 -d 7 -p cbr -e 500 -c 0 -i 21 -a 0 -x {1.0 5.0 21 ------- null}
h -t 0.125 -s 1 -d 7 -p cbr -e 500 -c 0 -i 21 -a 0 -x {1.0 5.0 -1 ------- null}
h -t 0.125 -s 1 -d 7 -p cbr -e 500 -c 0 -i 23 -a 0 -x {1.0 5.0 23 ------- null}
r -t 0.1254152 -s 7 -d 3 -p cbr -e 500 -c 0 -i 19 -a 0 -x {1.0 5.0 19 ------- null}
d -t 0.1254152 -s 3 -d 6 -p cbr -e 500 -c 0 -i 19 -a 0 -x {1.0 5.0 19 ------- null}
r -t 0.1254552 -s 3 -d 6 -p cbr -e 500 -c 0 -i 17 -a 0 -x {1.0 5.0 17 ------- null}
h -t 0.1254552 -s 6 -d 8 -p cbr -e 500 -c 0 -i 17 -a 0 -x {1.0 5.0 17 ------- null}
+ -t 0.13 -s 1 -d 7 -p cbr -e 500 -c 0 -i 22 -a 0 -x {1.0 5.0 22 ------- null}
- -t 0.13 -s 1 -d 7 -p cbr -e 500 -c 0 -i 22 -a 0 -x {1.0 5.0 22 ------- null}
h -t 0.13 -s 1 -d 7 -p cbr -e 500 -c 0 -i 22 -a 0 -x {1.0 5.0 -1 ------- null}
h -t 0.13 -s 1 -d 7 -p cbr -e 500 -c 0 -i 24 -a 0 -x {1.0 5.0 24 ------- null}
r -t 0.1304152 -s 7 -d 3 -p cbr -e 500 -c 0 -i 20 -a 0 -x {1.0 5.0 20 ------- null}
+ -t 0.1304152 -s 3 -d 6 -p cbr -e 500 -c 0 -i 20 -a 0 -x {1.0 5.0 20 ------- null}
- -t 0.1304152 -s 3 -d 6 -p cbr -e 500 -c 0 -i 20 -a 0 -x {1.0 5.0 20 ------- null}
h -t 0.1304152 -s 3 -d 6 -p cbr -e 500 -c 0 -i 20 -a 0 -x {1.0 5.0 -1 ------- null}
+ -t 0.1304552 -s 6 -d 8 -p cbr -e 500 -c 0 -i 16 -a 0 -x {1.0 5.0 16 ------- null}
- -t 0.1304552 -s 6 -d 8 -p cbr -e 500 -c 0 -i 16 -a 0 -x {1.0 5.0 16 ------- null}
h -t 0.1304552 -s 6 -d 8 -p cbr -e 500 -c 0 -i 16 -a 0 -x {1.0 5.0 -1 ------- null}
r -t 0.1308704 -s 8 -d 5 -p cbr -e 500 -c 0 -i 14 -a 0 -x {1.0 5.0 14 ------- null}
+ -t 0.135 -s 1 -d 7 -p cbr -e 500 -c 0 -i 23 -a 0 -x {1.0 5.0 23 ------- null}
- -t 0.135 -s 1 -d 7 -p cbr -e 500 -c 0 -i 23 -a 0 -x {1.0 5.0 23 ------- null}
h -t 0.135 -s 1 -d 7 -p cbr -e 500 -c 0 -i 23 -a 0 -x {1.0 5.0 -1 ------- null}
h -t 0.135 -s 1 -d 7 -p cbr -e 500 -c 0 -i 25 -a 0 -x {1.0 5.0 25 ------- null}
r -t 0.1354152 -s 7 -d 3 -p cbr -e 500 -c 0 -i 21 -a 0 -x {1.0 5.0 21 ------- null}
+ -t 0.1354152 -s 3 -d 6 -p cbr -e 500 -c 0 -i 21 -a 0 -x {1.0 5.0 21 ------- null}
- -t 0.1354152 -s 3 -d 6 -p cbr -e 500 -c 0 -i 21 -a 0 -x {1.0 5.0 21 ------- null}
h -t 0.1354152 -s 3 -d 6 -p cbr -e 500 -c 0 -i 21 -a 0 -x {1.0 5.0 -1 ------- null}
+ -t 0.1354552 -s 6 -d 8 -p cbr -e 500 -c 0 -i 17 -a 0 -x {1.0 5.0 17 ------- null}
- -t 0.1354552 -s 6 -d 8 -p cbr -e 500 -c 0 -i 17 -a 0 -x {1.0 5.0 17 ------- null}
h -t 0.1354552 -s 6 -d 8 -p cbr -e 500 -c 0 -i 17 -a 0 -x {1.0 5.0 -1 ------- null}
+ -t 0.14 -s 1 -d 7 -p cbr -e 500 -c 0 -i 24 -a 0 -x {1.0 5.0 24 ------- null}
- -t 0.14 -s 1 -d 7 -p cbr -e 500 -c 0 -i 24 -a 0 -x {1.0 5.0 24 ------- null}
h -t 0.14 -s 1 -d 7 -p cbr -e 500 -c 0 -i 24 -a 0 -x {1.0 5.0 -1 ------- null}
h -t 0.14 -s 1 -d 7 -p cbr -e 500 -c 0 -i 26 -a 0 -x {1.0 5.0 26 ------- null}
r -t 0.1404152 -s 7 -d 3 -p cbr -e 500 -c 0 -i 22 -a 0 -x {1.0 5.0 22 ------- null}
+ -t 0.1404152 -s 3 -d 6 -p cbr -e 500 -c 0 -i 22 -a 0 -x {1.0 5.0 22 ------- null}
- -t 0.1404152 -s 3 -d 6 -p cbr -e 500 -c 0 -i 22 -a 0 -x {1.0 5.0 22 ------- null}
h -t 0.1404152 -s 3 -d 6 -p cbr -e 500 -c 0 -i 22 -a 0 -x {1.0 5.0 -1 ------- null}
r -t 0.1404552 -s 3 -d 6 -p cbr -e 500 -c 0 -i 20 -a 0 -x {1.0 5.0 20 ------- null}
h -t 0.1404552 -s 6 -d 8 -p cbr -e 500 -c 0 -i 20 -a 0 -x {1.0 5.0 20 ------- null}
r -t 0.1408704 -s 8 -d 5 -p cbr -e 500 -c 0 -i 16 -a 0 -x {1.0 5.0 16 ------- null}
+ -t 0.145 -s 1 -d 7 -p cbr -e 500 -c 0 -i 25 -a 0 -x {1.0 5.0 25 ------- null}
- -t 0.145 -s 1 -d 7 -p cbr -e 500 -c 0 -i 25 -a 0 -x {1.0 5.0 25 ------- null}
h -t 0.145 -s 1 -d 7 -p cbr -e 500 -c 0 -i 25 -a 0 -x {1.0 5.0 -1 ------- null}
h -t 0.145 -s 1 -d 7 -p cbr -e 500 -c 0 -i 27 -a 0 -x {1.0 5.0 27 ------- null}
r -t 0.1454152 -s 7 -d 3 -p cbr -e 500 -c 0 -i 23 -a 0 -x {1.0 5.0 23 ------- null}
+ -t 0.1454152 -s 3 -d 6 -p cbr -e 500 -c 0 -i 23 -a 0 -x {1.0 5.0 23 ------- null}
- -t 0.1454152 -s 3 -d 6 -p cbr -e 500 -c 0 -i 23 -a 0 -x {1.0 5.0 23 ------- null}
h -t 0.1454152 -s 3 -d 6 -p cbr -e 500 -c 0 -i 23 -a 0 -x {1.0 5.0 -1 ------- null}
r -t 0.1454552 -s 3 -d 6 -p cbr -e 500 -c 0 -i 21 -a 0 -x {1.0 5.0 21 ------- null}
h -t 0.1454552 -s 6 -d 8 -p cbr -e 500 -c 0 -i 21 -a 0 -x {1.0 5.0 21 ------- null}
r -t 0.1458704 -s 8 -d 5 -p cbr -e 500 -c 0 -i 17 -a 0 -x {1.0 5.0 17 ------- null}
+ -t 0.15 -s 1 -d 7 -p cbr -e 500 -c 0 -i 26 -a 0 -x {1.0 5.0 26 ------- null}
- -t 0.15 -s 1 -d 7 -p cbr -e 500 -c 0 -i 26 -a 0 -x {1.0 5.0 26 ------- null}
h -t 0.15 -s 1 -d 7 -p cbr -e 500 -c 0 -i 26 -a 0 -x {1.0 5.0 -1 ------- null}
h -t 0.15 -s 1 -d 7 -p cbr -e 500 -c 0 -i 28 -a 0 -x {1.0 5.0 28 ------- null}
r -t 0.1504152 -s 7 -d 3 -p cbr -e 500 -c 0 -i 24 -a 0 -x {1.0 5.0 24 ------- null}
+ -t 0.1504152 -s 3 -d 6 -p cbr -e 500 -c 0 -i 24 -a 0 -x {1.0 5.0 24 ------- null}
- -t 0.1504152 -s 3 -d 6 -p cbr -e 500 -c 0 -i 24 -a 0 -x {1.0 5.0 24 ------- null}
h -t 0.1504152 -s 3 -d 6 -p cbr -e 500 -c 0 -i 24 -a 0 -x {1.0 5.0 -1 ------- null}
r -t 0.1504552 -s 3 -d 6 -p cbr -e 500 -c 0 -i 22 -a 0 -x {1.0 5.0 22 ------- null}
h -t 0.1504552 -s 6 -d 8 -p cbr -e 500 -c 0 -i 22 -a 0 -x {1.0 5.0 22 ------- null}
+ -t 0.1504552 -s 6 -d 8 -p cbr -e 500 -c 0 -i 20 -a 0 -x {1.0 5.0 20 ------- null}
- -t 0.1504552 -s 6 -d 8 -p cbr -e 500 -c 0 -i 20 -a 0 -x {1.0 5.0 20 ------- null}
h -t 0.1504552 -s 6 -d 8 -p cbr -e 500 -c 0 -i 20 -a 0 -x {1.0 5.0 -1 ------- null}
+ -t 0.155 -s 1 -d 7 -p cbr -e 500 -c 0 -i 27 -a 0 -x {1.0 5.0 27 ------- null}
- -t 0.155 -s 1 -d 7 -p cbr -e 500 -c 0 -i 27 -a 0 -x {1.0 5.0 27 ------- null}
h -t 0.155 -s 1 -d 7 -p cbr -e 500 -c 0 -i 27 -a 0 -x {1.0 5.0 -1 ------- null}
h -t 0.155 -s 1 -d 7 -p cbr -e 500 -c 0 -i 29 -a 0 -x {1.0 5.0 29 ------- null}
r -t 0.1554152 -s 7 -d 3 -p cbr -e 500 -c 0 -i 25 -a 0 -x {1.0 5.0 25 ------- null}
+ -t 0.1554152 -s 3 -d 6 -p cbr -e 500 -c 0 -i 25 -a 0 -x {1.0 5.0 25 ------- null}
- -t 0.1554152 -s 3 -d 6 -p cbr -e 500 -c 0 -i 25 -a 0 -x {1.0 5.0 25 ------- null}
h -t 0.1554152 -s 3 -d 6 -p cbr -e 500 -c 0 -i 25 -a 0 -x {1.0 5.0 -1 ------- null}
r -t 0.1554552 -s 3 -d 6 -p cbr -e 500 -c 0 -i 23 -a 0 -x {1.0 5.0 23 ------- null}
h -t 0.1554552 -s 6 -d 8 -p cbr -e 500 -c 0 -i 23 -a 0 -x {1.0 5.0 23 ------- null}
+ -t 0.1554552 -s 6 -d 8 -p cbr -e 500 -c 0 -i 21 -a 0 -x {1.0 5.0 21 ------- null}
- -t 0.1554552 -s 6 -d 8 -p cbr -e 500 -c 0 -i 21 -a 0 -x {1.0 5.0 21 ------- null}
h -t 0.1554552 -s 6 -d 8 -p cbr -e 500 -c 0 -i 21 -a 0 -x {1.0 5.0 -1 ------- null}
+ -t 0.16 -s 1 -d 7 -p cbr -e 500 -c 0 -i 28 -a 0 -x {1.0 5.0 28 ------- null}
- -t 0.16 -s 1 -d 7 -p cbr -e 500 -c 0 -i 28 -a 0 -x {1.0 5.0 28 ------- null}
h -t 0.16 -s 1 -d 7 -p cbr -e 500 -c 0 -i 28 -a 0 -x {1.0 5.0 -1 ------- null}
h -t 0.16 -s 1 -d 7 -p cbr -e 500 -c 0 -i 30 -a 0 -x {1.0 5.0 30 ------- null}
r -t 0.1604152 -s 7 -d 3 -p cbr -e 500 -c 0 -i 26 -a 0 -x {1.0 5.0 26 ------- null}
+ -t 0.1604152 -s 3 -d 6 -p cbr -e 500 -c 0 -i 26 -a 0 -x {1.0 5.0 26 ------- null}
- -t 0.1604152 -s 3 -d 6 -p cbr -e 500 -c 0 -i 26 -a 0 -x {1.0 5.0 26 ------- null}
h -t 0.1604152 -s 3 -d 6 -p cbr -e 500 -c 0 -i 26 -a 0 -x {1.0 5.0 -1 ------- null}
r -t 0.1604552 -s 3 -d 6 -p cbr -e 500 -c 0 -i 24 -a 0 -x {1.0 5.0 24 ------- null}
h -t 0.1604552 -s 6 -d 8 -p cbr -e 500 -c 0 -i 24 -a 0 -x {1.0 5.0 24 ------- null}
+ -t 0.1604552 -s 6 -d 8 -p cbr -e 500 -c 0 -i 22 -a 0 -x {1.0 5.0 22 ------- null}
- -t 0.1604552 -s 6 -d 8 -p cbr -e 500 -c 0 -i 22 -a 0 -x {1.0 5.0 22 ------- null}
h -t 0.1604552 -s 6 -d 8 -p cbr -e 500 -c 0 -i 22 -a 0 -x {1.0 5.0 -1 ------- null}
r -t 0.1608704 -s 8 -d 5 -p cbr -e 500 -c 0 -i 20 -a 0 -x {1.0 5.0 20 ------- null}
+ -t 0.165 -s 1 -d 7 -p cbr -e 500 -c 0 -i 29 -a 0 -x {1.0 5.0 29 ------- null}
- -t 0.165 -s 1 -d 7 -p cbr -e 500 -c 0 -i 29 -a 0 -x {1.0 5.0 29 ------- null}
h -t 0.165 -s 1 -d 7 -p cbr -e 500 -c 0 -i 29 -a 0 -x {1.0 5.0 -1 ------- null}
h -t 0.165 -s 1 -d 7 -p cbr -e 500 -c 0 -i 31 -a 0 -x {1.0 5.0 31 ------- null}
r -t 0.1654152 -s 7 -d 3 -p cbr -e 500 -c 0 -i 27 -a 0 -x {1.0 5.0 27 ------- null}
+ -t 0.1654152 -s 3 -d 6 -p cbr -e 500 -c 0 -i 27 -a 0 -x {1.0 5.0 27 ------- null}
- -t 0.1654152 -s 3 -d 6 -p cbr -e 500 -c 0 -i 27 -a 0 -x {1.0 5.0 27 ------- null}
h -t 0.1654152 -s 3 -d 6 -p cbr -e 500 -c 0 -i 27 -a 0 -x {1.0 5.0 -1 ------- null}
r -t 0.1654552 -s 3 -d 6 -p cbr -e 500 -c 0 -i 25 -a 0 -x {1.0 5.0 25 ------- null}
h -t 0.1654552 -s 6 -d 8 -p cbr -e 500 -c 0 -i 25 -a 0 -x {1.0 5.0 25 ------- null}
+ -t 0.1654552 -s 6 -d 8 -p cbr -e 500 -c 0 -i 23 -a 0 -x {1.0 5.0 23 ------- null}
- -t 0.1654552 -s 6 -d 8 -p cbr -e 500 -c 0 -i 23 -a 0 -x {1.0 5.0 23 ------- null}
h -t 0.1654552 -s 6 -d 8 -p cbr -e 500 -c 0 -i 23 -a 0 -x {1.0 5.0 -1 ------- null}
r -t 0.1658704 -s 8 -d 5 -p cbr -e 500 -c 0 -i 21 -a 0 -x {1.0 5.0 21 ------- null}
+ -t 0.17 -s 1 -d 7 -p cbr -e 500 -c 0 -i 30 -a 0 -x {1.0 5.0 30 ------- null}
- -t 0.17 -s 1 -d 7 -p cbr -e 500 -c 0 -i 30 -a 0 -x {1.0 5.0 30 ------- null}
h -t 0.17 -s 1 -d 7 -p cbr -e 500 -c 0 -i 30 -a 0 -x {1.0 5.0 -1 ------- null}
h -t 0.17 -s 1 -d 7 -p cbr -e 500 -c 0 -i 32 -a 0 -x {1.0 5.0 32 ------- null}
r -t 0.1704152 -s 7 -d 3 -p cbr -e 500 -c 0 -i 28 -a 0 -x {1.0 5.0 28 ------- null}
+ -t 0.1704152 -s 3 -d 6 -p cbr -e 500 -c 0 -i 28 -a 0 -x {1.0 5.0 28 ------- null}
- -t 0.1704152 -s 3 -d 6 -p cbr -e 500 -c 0 -i 28 -a 0 -x {1.0 5.0 28 ------- null}
h -t 0.1704152 -s 3 -d 6 -p cbr -e 500 -c 0 -i 28 -a 0 -x {1.0 5.0 -1 ------- null}
r -t 0.1704552 -s 3 -d 6 -p cbr -e 500 -c 0 -i 26 -a 0 -x {1.0 5.0 26 ------- null}
h -t 0.1704552 -s 6 -d 8 -p cbr -e 500 -c 0 -i 26 -a 0 -x {1.0 5.0 26 ------- null}
+ -t 0.1704552 -s 6 -d 8 -p cbr -e 500 -c 0 -i 24 -a 0 -x {1.0 5.0 24 ------- null}
- -t 0.1704552 -s 6 -d 8 -p cbr -e 500 -c 0 -i 24 -a 0 -x {1.0 5.0 24 ------- null}
h -t 0.1704552 -s 6 -d 8 -p cbr -e 500 -c 0 -i 24 -a 0 -x {1.0 5.0 -1 ------- null}
r -t 0.1708704 -s 8 -d 5 -p cbr -e 500 -c 0 -i 22 -a 0 -x {1.0 5.0 22 ------- null}
+ -t 0.175 -s 1 -d 7 -p cbr -e 500 -c 0 -i 31 -a 0 -x {1.0 5.0 31 ------- null}
- -t 0.175 -s 1 -d 7 -p cbr -e 500 -c 0 -i 31 -a 0 -x {1.0 5.0 31 ------- null}
h -t 0.175 -s 1 -d 7 -p cbr -e 500 -c 0 -i 31 -a 0 -x {1.0 5.0 -1 ------- null}
h -t 0.175 -s 1 -d 7 -p cbr -e 500 -c 0 -i 33 -a 0 -x {1.0 5.0 33 ------- null}
r -t 0.1754152 -s 7 -d 3 -p cbr -e 500 -c 0 -i 29 -a 0 -x {1.0 5.0 29 ------- null}
+ -t 0.1754152 -s 3 -d 6 -p cbr -e 500 -c 0 -i 29 -a 0 -x {1.0 5.0 29 ------- null}
- -t 0.1754152 -s 3 -d 6 -p cbr -e 500 -c 0 -i 29 -a 0 -x {1.0 5.0 29 ------- null}
h -t 0.1754152 -s 3 -d 6 -p cbr -e 500 -c 0 -i 29 -a 0 -x {1.0 5.0 -1 ------- null}
r -t 0.1754552 -s 3 -d 6 -p cbr -e 500 -c 0 -i 27 -a 0 -x {1.0 5.0 27 ------- null}
h -t 0.1754552 -s 6 -d 8 -p cbr -e 500 -c 0 -i 27 -a 0 -x {1.0 5.0 27 ------- null}
+ -t 0.1754552 -s 6 -d 8 -p cbr -e 500 -c 0 -i 25 -a 0 -x {1.0 5.0 25 ------- null}
- -t 0.1754552 -s 6 -d 8 -p cbr -e 500 -c 0 -i 25 -a 0 -x {1.0 5.0 25 ------- null}
h -t 0.1754552 -s 6 -d 8 -p cbr -e 500 -c 0 -i 25 -a 0 -x {1.0 5.0 -1 ------- null}
r -t 0.1758704 -s 8 -d 5 -p cbr -e 500 -c 0 -i 23 -a 0 -x {1.0 5.0 23 ------- null}
+ -t 0.18 -s 1 -d 7 -p cbr -e 500 -c 0 -i 32 -a 0 -x {1.0 5.0 32 ------- null}
- -t 0.18 -s 1 -d 7 -p cbr -e 500 -c 0 -i 32 -a 0 -x {1.0 5.0 32 ------- null}
h -t 0.18 -s 1 -d 7 -p cbr -e 500 -c 0 -i 32 -a 0 -x {1.0 5.0 -1 ------- null}
h -t 0.18 -s 1 -d 7 -p cbr -e 500 -c 0 -i 34 -a 0 -x {1.0 5.0 34 ------- null}
r -t 0.1804152 -s 7 -d 3 -p cbr -e 500 -c 0 -i 30 -a 0 -x {1.0 5.0 30 ------- null}
+ -t 0.1804152 -s 3 -d 6 -p cbr -e 500 -c 0 -i 30 -a 0 -x {1.0 5.0 30 ------- null}
- -t 0.1804152 -s 3 -d 6 -p cbr -e 500 -c 0 -i 30 -a 0 -x {1.0 5.0 30 ------- null}
h -t 0.1804152 -s 3 -d 6 -p cbr -e 500 -c 0 -i 30 -a 0 -x {1.0 5.0 -1 ------- null}
r -t 0.1804552 -s 3 -d 6 -p cbr -e 500 -c 0 -i 28 -a 0 -x {1.0 5.0 28 ------- null}
h -t 0.1804552 -s 6 -d 8 -p cbr -e 500 -c 0 -i 28 -a 0 -x {1.0 5.0 28 ------- null}
+ -t 0.1804552 -s 6 -d 8 -p cbr -e 500 -c 0 -i 26 -a 0 -x {1.0 5.0 26 ------- null}
- -t 0.1804552 -s 6 -d 8 -p cbr -e 500 -c 0 -i 26 -a 0 -x {1.0 5.0 26 ------- null}
h -t 0.1804552 -s 6 -d 8 -p cbr -e 500 -c 0 -i 26 -a 0 -x {1.0 5.0 -1 ------- null}
r -t 0.1808704 -s 8 -d 5 -p cbr -e 500 -c 0 -i 24 -a 0 -x {1.0 5.0 24 ------- null}