h 0.01 1 7 cbr 500 ------- 0 1.0 5.0 0 0
h 0.015 1 7 cbr 500 ------- 0 1.0 5.0 1 1
+ 0.02 1 7 cbr 500 ------- 0 1.0 5.0 0 0
- 0.02 1 7 cbr 500 ------- 0 1.0 5.0 0 0
h 0.02 1 7 cbr 500 ------- 0 1.0 5.0 2 2
+ 0.025 1 7 cbr 500 ------- 0 1.0 5.0 1 1
- 0.025 1 7 cbr 500 ------- 0 1.0 5.0 1 1
h 0.025 1 7 cbr 500 ------- 0 1.0 5.0 3 3
+ 0.03 1 7 cbr 500 ------- 0 1.0 5.0 2 2
- 0.03 1 7 cbr 500 ------- 0 1.0 5.0 2 2
h 0.03 1 7 cbr 500 ------- 0 1.0 5.0 4 4
r 0.030415 7 3 cbr 500 ------- 0 1.0 5.0 0 0
d 0.030415 3 6 cbr 500 ------- 0 1.0 5.0 0 0
+ 0.035 1 7 cbr 500 ------- 0 1.0 5.0 3 3
- 0.035 1 7 cbr 500 ------- 0 1.0 5.0 3 3
h 0.035 1 7 cbr 500 ------- 0 1.0 5.0 5 5
r 0.035415 7 3 cbr 500 ------- 0 1.0 5.0 1 1
+ 0.035415 3 6 cbr 500 ------- 0 1.0 5.0 1 1
- 0.035415 3 6 cbr 500 ------- 0 1.0 5.0 1 1
+ 0.04 1 7 cbr 500 ------- 0 1.0 5.0 4 4
- 0.04 1 7 cbr 500 ------- 0 1.0 5.0 4 4
h 0.04 1 7 cbr 500 ------- 0 1.0 5.0 6 6
r 0.040415 7 3 cbr 500 ------- 0 1.0 5.0 2 2
d 0.040415 3 6 cbr 500 ------- 0 1.0 5.0 2 2
h 0.045 1 7 cbr 500 ------- 0 1.0 5.0 7 7
+ 0.045 1 7 cbr 500 ------- 0 1.0 5.0 5 5
- 0.045 1 7 cbr 500 ------- 0 1.0 5.0 5 5
r 0.045415 7 3 cbr 500 ------- 0 1.0 5.0 3 3
d 0.045415 3 6 cbr 500 ------- 0 1.0 5.0 3 3
r 0.045455 3 6 cbr 500 ------- 0 1.0 5.0 1 1
h 0.045455 6 8 cbr 500 ------- 0 1.0 5.0 1 1
h 0.05 1 7 cbr 500 ------- 0 1.0 5.0 8 8
+ 0.05 1 7 cbr 500 ------- 0 1.0 5.0 6 6
- 0.05 1 7 cbr 500 ------- 0 1.0 5.0 6 6
r 0.050415 7 3 cbr 500 ------- 0 1.0 5.0 4 4
+ 0.050415 3 6 cbr 500 ------- 0 1.0 5.0 4 4
- 0.050415 3 6 cbr 500 ------- 0 1.0 5.0 4 4
h 0.055 1 7 cbr 500 ------- 0 1.0 5.0 9 9
+ 0.055 1 7 cbr 500 ------- 0 1.0 5.0 7 7
- 0.055 1 7 cbr 500 ------- 0 1.0 5.0 7 7
r 0.055415 7 3 cbr 500 ------- 0 1.0 5.0 5 5
+ 0.055415 3 6 cbr 500 ------- 0 1.0 5.0 5 5
- 0.055415 3 6 cbr 500 ------- 0 1.0 5.0 5 5
+ 0.055455 6 8 cbr 500 ------- 0 1.0 5.0 1 1
- 0.055455 6 8 cbr 500 ------- 0 1.0 5.0 1 1
h 0.06 1 7 cbr 500 ------- 0 1.0 5.0 10 10
+ 0.06 1 7 cbr 500 ------- 0 1.0 5.0 8 8
- 0.06 1 7 cbr 500 ------- 0 1.0 5.0 8 8
r 0.060415 7 3 cbr 500 ------- 0 1.0 5.0 6 6
+ 0.060415 3 6 cbr 500 ------- 0 1.0 5.0 6 6
- 0.060415 3 6 cbr 500 ------- 0 1.0 5.0 6 6
r 0.060455 3 6 cbr 500 ------- 0 1.0 5.0 4 4
h 0.060455 6 8 cbr 500 ------- 0 1.0 5.0 4 4
+ 0.065 1 7 cbr 500 ------- 0 1.0 5.0 9 9
- 0.065 1 7 cbr 500 ------- 0 1.0 5.0 9 9
h 0.065 1 7 cbr 500 ------- 0 1.0 5.0 11 11
r 0.065415 7 3 cbr 500 ------- 0 1.0 5.0 7 7
+ 0.065415 3 6 cbr 500 ------- 0 1.0 5.0 7 7
- 0.065415 3 6 cbr 500 ------- 0 1.0 5.0 7 7
r 0.065455 3 6 cbr 500 ------- 0 1.0 5.0 5 5
h 0.065455 6 8 cbr 500 ------- 0 1.0 5.0 5 5
r 0.06587 8 5 cbr 500 ------- 0 1.0 5.0 1 1
+ 0.07 1 7 cbr 500 ------- 0 1.0 5.0 10 10
- 0.07 1 7 cbr 500 ------- 0 1.0 5.0 10 10
h 0.07 1 7 cbr 500 ------- 0 1.0 5.0 12 12
r 0.070415 7 3 cbr 500 ------- 0 1.0 5.0 8 8
+ 0.070415 3 6 cbr 500 ------- 0 1.0 5.0 8 8
- 0.070415 3 6 cbr 500 ------- 0 1.0 5.0 8 8
r 0.070455 3 6 cbr 500 ------- 0 1.0 5.0 6 6
h 0.070455 6 8 cbr 500 ------- 0 1.0 5.0 6 6
+ 0.070455 6 8 cbr 500 ------- 0 1.0 5.0 4 4
- 0.070455 6 8 cbr 500 ------- 0 1.0 5.0 4 4
+ 0.075 1 7 cbr 500 ------- 0 1.0 5.0 11 11
- 0.075 1 7 cbr 500 ------- 0 1.0 5.0 11 11
h 0.075 1 7 cbr 500 ------- 0 1.0 5.0 13 13
r 0.075415 7 3 cbr 500 ------- 0 1.0 5.0 9 9
+ 0.075415 3 6 cbr 500 ------- 0 1.0 5.0 9 9
- 0.075415 3 6 cbr 500 ------- 0 1.0 5.0 9 9
r 0.075455 3 6 cbr 500 ------- 0 1.0 5.0 7 7
h 0.075455 6 8 cbr 500 ------- 0 1.0 5.0 7 7
+ 0.075455 6 8 cbr 500 ------- 0 1.0 5.0 5 5
- 0.075455 6 8 cbr 500 ------- 0 1.0 5.0 5 5
+ 0.08 1 7 cbr 500 ------- 0 1.0 5.0 12 12
- 0.08 1 7 cbr 500 ------- 0 1.0 5.0 12 12
h 0.08 1 7 cbr 500 ------- 0 1.0 5.0 14 14
r 0.080415 7 3 cbr 500 ------- 0 1.0 5.0 10 10
+ 0.080415 3 6 cbr 500 ------- 0 1.0 5.0 10 10
- 0.080415 3 6 cbr 500 ------- 0 1.0 5.0 10 10
+ 0.080455 6 8 cbr 500 ------- 0 1.0 5.0 6 6
- 0.080455 6 8 cbr 500 ------- 0 1.0 5.0 6 6
r 0.080455 3 6 cbr 500 ------- 0 1.0 5.0 8 8
h 0.080455 6 8 cbr 500 ------- 0 1.0 5.0 8 8
r 0.08087 8 5 cbr 500 ------- 0 1.0 5.0 4 4
+ 0.085 1 7 cbr 500 ------- 0 1.0 5.0 13 13
- 0.085 1 7 cbr 500 ------- 0 1.0 5.0 13 13
h 0.085 1 7 cbr 500 ------- 0 1.0 5.0 15 15
r 0.085415 7 3 cbr 500 ------- 0 1.0 5.0 11 11
+ 0.085415 3 6 cbr 500 ------- 0 1.0 5.0 11 11
- 0.085415 3 6 cbr 500 ------- 0 1.0 5.0 11 11
r 0.085455 3 6 cbr 500 ------- 0 1.0 5.0 9 9
h 0.085455 6 8 cbr 500 ------- 0 1.0 5.0 9 9
+ 0.085455 6 8 cbr 500 ------- 0 1.0 5.0 7 7
- 0.085455 6 8 cbr 500 ------- 0 1.0 5.0 7 7
r 0.08587 8 5 cbr 500 ------- 0 1.0 5.0 5 5
+ 0.09 1 7 cbr 500 ------- 0 1.0 5.0 14 14
- 0.09 1 7 cbr 500 ------- 0 1.0 5.0 14 14
h 0.09 1 7 cbr 500 ------- 0 1.0 5.0 16 16
r 0.090415 7 3 cbr 500 ------- 0 1.0 5.0 12 12
d 0.090415 3 6 cbr 500 ------- 0 1.0 5.0 12 12
r 0.090455 3 6 cbr 500 ------- 0 1.0 5.0 10 10
h 0.090455 6 8 cbr 500 ------- 0 1.0 5.0 10 10
+ 0.090455 6 8 cbr 500 ------- 0 1.0 5.0 8 8
- 0.090455 6 8 cbr 500 ------- 0 1.0 5.0 8 8
r 0.09087 8 5 cbr 500 ------- 0 1.0 5.0 6 6
+ 0.095 1 7 cbr 500 ------- 0 1.0 5.0 15 15
- 0.095 1 7 cbr 500 ------- 0 1.0 5.0 15 15
h 0.095 1 7 cbr 500 ------- 0 1.0 5.0 17 17
r 0.095415 7 3 cbr 500 ------- 0 1.0 5.0 13 13
d 0.095415 3 6 cbr 500 ------- 0 1.0 5.0 13 13
+ 0.095455 6 8 cbr 500 ------- 0 1.0 5.0 9 9
- 0.095455 6 8 cbr 500 ------- 0 1.0 5.0 9 9
r 0.095455 3 6 cbr 500 ------- 0 1.0 5.0 11 11
h 0.095455 6 8 cbr 500 ------- 0 1.0 5.0 11 11
r 0.09587 8 5 cbr 500 ------- 0 1.0 5.0 7 7
+ 0.1 1 7 cbr 500 ------- 0 1.0 5.0 16 16
- 0.1 1 7 cbr 500 ------- 0 1.0 5.0 16 16
h 0.1 1 7 cbr 500 ------- 0 1.0 5.0 18 18
r 0.100415 7 3 cbr 500 ------- 0 1.0 5.0 14 14
+ 0.100415 3 6 cbr 500 ------- 0 1.0 5.0 14 14
- 0.100415 3 6 cbr 500 ------- 0 1.0 5.0 14 14
+ 0.100455 6 8 cbr 500 ------- 0 1.0 5.0 10 10
- 0.100455 6 8 cbr 500 ------- 0 1.0 5.0 10 10
r 0.10087 8 5 cbr 500 ------- 0 1.0 5.0 8 8
+ 0.105 1 7 cbr 500 ------- 0 1.0 5.0 17 17
- 0.105 1 7 cbr 500 ------- 0 1.0 5.0 17 17
h 0.105 1 7 cbr 500 ------- 0 1.0 5.0 19 19
r 0.105415 7 3 cbr 500 ------- 0 1.0 5.0 15 15
d 0.105415 3 6 cbr 500 ------- 0 1.0 5.0 15 15
+ 0.105455 6 8 cbr 500 ------- 0 1.0 5.0 11 11
- 0.105455 6 8 cbr 500 ------- 0 1.0 5.0 11 11
r 0.10587 8 5 cbr 500 ------- 0 1.0 5.0 9 9
+ 0.11 1 7 cbr 500 ------- 0 1.0 5.0 18 18
- 0.11 1 7 cbr 500 ------- 0 1.0 5.0 18 18
h 0.11 1 7 cbr 500 ------- 0 1.0 5.0 20 20
r 0.110415 7 3 cbr 500 ------- 0 1.0 5.0 16 16
+ 0.110415 3 6 cbr 500 ------- 0 1.0 5.0 16 16
- 0.110415 3 6 cbr 500 ------- 0 1.0 5.0 16 16
r 0.110455 3 6 cbr 500 ------- 0 1.0 5.0 14 14
h 0.110455 6 8 cbr 500 ------- 0 1.0 5.0 14 14
r 0.11087 8 5 cbr 500 ------- 0 1.0 5.0 10 10
+ 0.115 1 7 cbr 500 ------- 0 1.0 5.0 19 19
- 0.115 1 7 cbr 500 ------- 0 1.0 5.0 19 19
h 0.115 1 7 cbr 500 ------- 0 1.0 5.0 21 21
r 0.115415 7 3 cbr 500 ------- 0 1.0 5.0 17 17
+ 0.115415 3 6 cbr 500 ------- 0 1.0 5.0 17 17
- 0.115415 3 6 cbr 500 ------- 0 1.0 5.0 17 17
r 0.11587 8 5 cbr 500 ------- 0 1.0 5.0 11 11
+ 0.12 1 7 cbr 500 ------- 0 1.0 5.0 20 20
- 0.12 1 7 cbr 500 ------- 0 1.0 5.0 20 20
h 0.12 1 7 cbr 500 ------- 0 1.0 5.0 22 22
r 0.120415 7 3 cbr 500 ------- 0 1.0 5.0 18 18
d 0.120415 3 6 cbr 500 ------- 0 1.0 5.0 18 18
+ 0.120455 6 8 cbr 500 ------- 0 1.0 5.0 14 14
- 0.120455 6 8 cbr 500 ------- 0 1.0 5.0 14 14
r 0.120455 3 6 cbr 500 ------- 0 1.0 5.0 16 16
h 0.120455 6 8 cbr 500 ------- 0 1.0 5.0 16 16
+ 0.125 1 7 cbr 500 ------- 0 1.0 5.0 21 21
- 0.125 1 7 cbr 500 ------- 0 1.0 5.0 21 21
h 0.125 1 7 cbr 500 ------- 0 1.0 5.0 23 23
r 0.125415 7 3 cbr 500 ------- 0 1.0 5.0 19 19
d 0.125415 3 6 cbr 500 ------- 0 1.0 5.0 19 19
r 0.125455 3 6 cbr 500 ------- 0 1.0 5.0 17 17
h 0.125455 6 8 cbr 500 ------- 0 1.0 5.0 17 17
+ 0.13 1 7 cbr 500 ------- 0 1.0 5.0 22 22
- 0.13 1 7 cbr 500 ------- 0 1.0 5.0 22 22
h 0.13 1 7 cbr 500 ------- 0 1.0 5.0 24 24
r 0.130415 7 3 cbr 500 ------- 0 1.0 5.0 20 20
+ 0.130415 3 6 cbr 500 ------- 0 1.0 5.0 20 20
- 0.130415 3 6 cbr 500 ------- 0 1.0 5.0 20 20
+ 0.130455 6 8 cbr 500 ------- 0 1.0 5.0 16 16
- 0.130455 6 8 cbr 500 ------- 0 1.0 5.0 16 16
r 0.13087 8 5 cbr 500 ------- 0 1.0 5.0 14 14
+ 0.135 1 7 cbr 500 ------- 0 1.0 5.0 23 23
- 0.135 1 7 cbr 500 ------- 0 1.0 5.0 23 23
h 0.135 1 7 cbr 500 ------- 0 1.0 5.0 25 25
r 0.135415 7 3 cbr 500 ------- 0 1.0 5.0 21 21
+ 0.135415 3 6 cbr 500 ------- 0 1.0 5.0 21 21
- 0.135415 3 6 cbr 500 ------- 0 1.0 5.0 21 21
+ 0.135455 6 8 cbr 500 ------- 0 1.0 5.0 17 17
- 0.135455 6 8 cbr 500 ------- 0 1.0 5.0 17 17
+ 0.14 1 7 cbr 500 ------- 0 1.0 5.0 24 24
- 0.14 1 7 cbr 500 ------- 0 1.0 5.0 24 24
h 0.14 1 7 cbr 500 ------- 0 1.0 5.0 26 26
r 0.140415 7 3 cbr 500 ------- 0 1.0 5.0 22 22
+ 0.140415 3 6 cbr 500 ------- 0 1.0 5.0 22 22
- 0.140415 3 6 cbr 500 ------- 0 1.0 5.0 22 22
r 0.140455 3 6 cbr 500 ------- 0 1.0 5.0 20 20
h 0.140455 6 8 cbr 500 ------- 0 1.0 5.0 20 20
r 0.14087 8 5 cbr 500 ------- 0 1.0 5.0 16 16
+ 0.145 1 7 cbr 500 ------- 0 1.0 5.0 25 25
- 0.145 1 7 cbr 500 ------- 0 1.0 5.0 25 25
h 0.145 1 7 cbr 500 ------- 0 1.0 5.0 27 27
r 0.145415 7 3 cbr 500 ------- 0 1.0 5.0 23 23
+ 0.145415 3 6 cbr 500 ------- 0 1.0 5.0 23 23
- 0.145415 3 6 cbr 500 ------- 0 1.0 5.0 23 23
r 0.145455 3 6 cbr 500 ------- 0 1.0 5.0 21 21
h 0.145455 6 8 cbr 500 ------- 0 1.0 5.0 21 21
r 0.14587 8 5 cbr 500 ------- 0 1.0 5.0 17 17
+ 0.15 1 7 cbr 500 ------- 0 1.0 5.0 26 26
- 0.15 1 7 cbr 500 ------- 0 1.0 5.0 26 26
h 0.15 1 7 cbr 500 ------- 0 1.0 5.0 28 28
r 0.150415 7 3 cbr 500 ------- 0 1.0 5.0 24 24
+ 0.150415 3 6 cbr 500 ------- 0 1.0 5.0 24 24
- 0.150415 3 6 cbr 500 ------- 0 1.0 5.0 24 24
r 0.150455 3 6 cbr 500 ------- 0 1.0 5.0 22 22
h 0.150455 6 8 cbr 500 ------- 0 1.0 5.0 22 22
+ 0.150455 6 8 cbr 500 ------- 0 1.0 5.0 20 20
- 0.150455 6 8 cbr 500 ------- 0 1.0 5.0 20 20
+ 0.155 1 7 cbr 500 ------- 0 1.0 5.0 27 27
- 0.155 1 7 cbr 500 ------- 0 1.0 5.0 27 27
h 0.155 1 7 cbr 500 ------- 0 1.0 5.0 29 29
r 0.155415 7 3 cbr 500 ------- 0 1.0 5.0 25 25
+ 0.155415 3 6 cbr 500 ------- 0 1.0 5.0 25 25
- 0.155415 3 6 cbr 500 ------- 0 1.0 5.0 25 25
r 0.155455 3 6 cbr 500 ------- 0 1.0 5.0 23 23
h 0.155455 6 8 cbr 500 ------- 0 1.0 5.0 23 23
+ 0.155455 6 8 cbr 500 ------- 0 1.0 5.0 21 21
- 0.155455 6 8 cbr 500 ------- 0 1.0 5.0 21 21
+ 0.16 1 7 cbr 500 ------- 0 1.0 5.0 28 28
- 0.16 1 7 cbr 500 ------- 0 1.0 5.0 28 28
h 0.16 1 7 cbr 500 ------- 0 1.0 5.0 30 30
r 0.160415 7 3 cbr 500 ------- 0 1.0 5.0 26 26
+ 0.160415 3 6 cbr 500 ------- 0 1.0 5.0 26 26
- 0.160415 3 6 cbr 500 ------- 0 1.0 5.0 26 26
r 0.160455 3 6 cbr 500 ------- 0 1.0 5.0 24 24
h 0.160455 6 8 cbr 500 ------- 0 1.0 5.0 24 24
+ 0.160455 6 8 cbr 500 ------- 0 1.0 5.0 22 22
- 0.160455 6 8 cbr 500 ------- 0 1.0 5.0 22 22
r 0.16087 8 5 cbr 500 ------- 0 1.0 5.0 20 20
+ 0.165 1 7 cbr 500 ------- 0 1.0 5.0 29 29
- 0.165 1 7 cbr 500 ------- 0 1.0 5.0 29 29
h 0.165 1 7 cbr 500 ------- 0 1.0 5.0 31 31
r 0.165415 7 3 cbr 500 ------- 0 1.0 5.0 27 27
+ 0.165415 3 6 cbr 500 ------- 0 1.0 5.0 27 27
- 0.165415 3 6 cbr 500 ------- 0 1.0 5.0 27 27
r 0.165455 3 6 cbr 500 ------- 0 1.0 5.0 25 25
h 0.165455 6 8 cbr 500 ------- 0 1.0 5.0 25 25
+ 0.165455 6 8 cbr 500 ------- 0 1.0 5.0 23 23
- 0.165455 6 8 cbr 500 ------- 0 1.0 5.0 23 23
r 0.16587 8 5 cbr 500 ------- 0 1.0 5.0 21 21
+ 0.17 1 7 cbr 500 ------- 0 1.0 5.0 30 30
- 0.17 1 7 cbr 500 ------- 0 1.0 5.0 30 30
h 0.17 1 7 cbr 500 ------- 0 1.0 5.0 32 32
r 0.170415 7 3 cbr 500 ------- 0 1.0 5.0 28 28
+ 0.170415 3 6 cbr 500 ------- 0 1.0 5.0 28 28
- 0.170415 3 6 cbr 500 ------- 0 1.0 5.0 28 28
r 0.170455 3 6 cbr 500 ------- 0 1.0 5.0 26 26
h 0.170455 6 8 cbr 500 ------- 0 1.0 5.0 26 26
+ 0.170455 6 8 cbr 500 ------- 0 1.0 5.0 24 24
- 0.170455 6 8 cbr 500 ------- 0 1.0 5.0 24 24
r 0.17087 8 5 cbr 500 ------- 0 1.0 5.0 22 22
+ 0.175 1 7 cbr 500 ------- 0 1.0 5.0 31 31
- 0.175 1 7 cbr 500 ------- 0 1.0 5.0 31 31
h 0.175 1 7 cbr 500 ------- 0 1.0 5.0 33 33
r 0.175415 7 3 cbr 500 ------- 0 1.0 5.0 29 29
+ 0.175415 3 6 cbr 500 ------- 0 1.0 5.0 29 29
- 0.175415 3 6 cbr 500 ------- 0 1.0 5.0 29 29
r 0.175455 3 6 cbr 500 ------- 0 1.0 5.0 27 27
h 0.175455 6 8 cbr 500 ------- 0 1.0 5.0 27 27
+ 0.175455 6 8 cbr 500 ------- 0 1.0 5.0 25 25
- 0.175455 6 8 cbr 500 ------- 0 1.0 5.0 25 25
r 0.17587 8 5 cbr 500 ------- 0 1.0 5.0 23 23
+ 0.18 1 7 cbr 500 ------- 0 1.0 5.0 32 32
- 0.18 1 7 cbr 500 ------- 0 1.0 5.0 32 32
h 0.18 1 7 cbr 500 ------- 0 1.0 5.0 34 34
r 0.180415 7 3 cbr 500 ------- 0 1.0 5.0 30 30
+ 0.180415 3 6 cbr 500 ------- 0 1.0 5.0 30 30
- 0.180415 3 6 cbr 500 ------- 0 1.0 5.0 30 30
r 0.180455 3 6 cbr 500 ------- 0 1.0 5.0 28 28
h 0.180455 6 8 cbr 500 ------- 0 1.0 5.0 28 28
+ 0.180455 6 8 cbr 500 ------- 0 1.0 5.0 26 26
- 0.180455 6 8 cbr 500 ------- 0 1.0 5.0 26 26
r 0.18087 8 5 cbr 500 ------- 0 1.0 5.0 24 24
+ 0.185 1 7 cbr 500 ------- 0 1.0 5.0 33 33
- 0.185 1 7 cbr 500 ------- 0 1.0 5.0 33 33
h 0.185 1 7 cbr 500 ------- 0 1.0 5.0 35 35
r 0.185415 7 3 cbr 500 ------- 0 1.0 5.0 31 31
+ 0.185415 3 6 cbr 500 ------- 0 1.0 5.0 31 31
- 0.185415 3 6 cbr 500 ------- 0 1.0 5.0 31 31
r 0.185455 3 6 cbr 500 ------- 0 1.0 5.0 29 29
h 0.185455 6 8 cbr 500 ------- 0 1.0 5.0 29 29
+ 0.185455 6 8 cbr 500 ------- 0 1.0 5.0 27 27
- 0.185455 6 8 cbr 500 ------- 0 1.0 5.0 27 27
r 0.18587 8 5 cbr 500 ------- 0 1.0 5.0 25 25
+ 0.19 1 7 cbr 500 ------- 0 1.0 5.0 34 34
- 0.19 1 7 cbr 500 ------- 0 1.0 5.0 34 34
h 0.19 1 7 cbr 500 ------- 0 1.0 5.0 36 36
r 0.190415 7 3 cbr 500 ------- 0 1.0 5.0 32 32
+ 0.190415 3 6 cbr 500 ------- 0 1.0 5.0 32 32
- 0.190415 3 6 cbr 500 ------- 0 1.0 5.0 32 32
r 0.190455 3 6 cbr 500 ------- 0 1.0 5.0 30 30
h 0.190455 6 8 cbr 500 ------- 0 1.0 5.0 30 30
+ 0.190455 6 8 cbr 500 ------- 0 1.0 5.0 28 28
- 0.190455 6 8 cbr 500 ------- 0 1.0 5.0 28 28
r 0.19087 8 5 cbr 500 ------- 0 1.0 5.0 26 26
+ 0.195 1 7 cbr 500 ------- 0 1.0 5.0 35 35
- 0.195 1 7 cbr 500 ------- 0 1.0 5.0 35 35
h 0.195 1 7 cbr 500 ------- 0 1.0 5.0 37 37
r 0.195415 7 3 cbr 500 ------- 0 1.0 5.0 33 33
+ 0.195415 3 6 cbr 500 ------- 0 1.0 5.0 33 33
- 0.195415 3 6 cbr 500 ------- 0 1.0 5.0 33 33
r 0.195455 3 6 cbr 500 ------- 0 1.0 5.0 31 31
h 0.195455 6 8 cbr 500 ------- 0 1.0 5.0 31 31
+ 0.195455 6 8 cbr 500 ------- 0 1.0 5.0 29 29
- 0.195455 6 8 cbr 500 ------- 0 1.0 5.0 29 29
r 0.19587 8 5 cbr 500 ------- 0 1.0 5.0 27 27
+ 0.2 1 7 cbr 500 ------- 0 1.0 5.0 36 36
- 0.2 1 7 cbr 500 ------- 0 1.0 5.0 36 36
h 0.2 1 7 cbr 500 ------- 0 1.0 5.0 38 38
r 0.200415 7 3 cbr 500 ------- 0 1.0 5.0 34 34
+ 0.200415 3 6 cbr 500 ------- 0 1.0 5.0 34 34
- 0.200415 3 6 cbr 500 ------- 0 1.0 5.0 34 34
r 0.200455 3 6 cbr 500 ------- 0 1.0 5.0 32 32
h 0.200455 6 8 cbr 500 ------- 0 1.0 5.0 32 32
+ 0.200455 6 8 cbr 500 ------- 0 1.0 5.0 30 30
- 0.200455 6 8 cbr 500 ------- 0 1.0 5.0 30 30
r 0.20087 8 5 cbr 500 ------- 0 1.0 5.0 28 28
+ 0.205 1 7 cbr 500 ------- 0 1.0 5.0 37 37
- 0.205 1 7 cbr 500 ------- 0 1.0 5.0 37 37
h 0.205 1 7 cbr 500 ------- 0 1.0 5.0 39 39
r 0.205415 7 3 cbr 500 ------- 0 1.0 5.0 35 35
+ 0.205415 3 6 cbr 500 ------- 0 1.0 5.0 35 35
- 0.205415 3 6 cbr 500 ------- 0 1.0 5.0 35 35
r 0.205455 3 6 cbr 500 ------- 0 1.0 5.0 33 33
h 0.205455 6 8 cbr 500 ------- 0 1.0 5.0 33 33
+ 0.205455 6 8 cbr 500 ------- 0 1.0 5.0 31 31
- 0.205455 6 8 cbr 500 ------- 0 1.0 5.0 31 31
r 0.20587 8 5 cbr 500 ------- 0 1.0 5.0 29 29
+ 0.21 1 7 cbr 500 ------- 0 1.0 5.0 38 38
- 0.21 1 7 cbr 500 ------- 0 1.0 5.0 38 38
h 0.21 1 7 cbr 500 ------- 0 1.0 5.0 40 40
r 0.210415 7 3 cbr 500 ------- 0 1.0 5.0 36 36
d 0.210415 3 6 cbr 500 ------- 0 1.0 5.0 36 36
r 0.210455 3 6 cbr 500 ------- 0 1.0 5.0 34 34
h 0.210455 6 8 cbr 500 ------- 0 1.0 5.0 34 34
+ 0.210455 6 8 cbr 500 ------- 0 1.0 5.0 32 32
- 0.210455 6 8 cbr 500 ------- 0 1.0 5.0 32 32
r 0.21087 8 5 cbr 500 ------- 0 1.0 5.0 30 30
+ 0.215 1 7 cbr 500 ------- 0 1.0 5.0 39 39
- 0.215 1 7 cbr 500 ------- 0 1.0 5.0 39 39
h 0.215 1 7 cbr 500 ------- 0 1.0 5.0 41 41
r 0.215415 7 3 cbr 500 ------- 0 1.0 5.0 37 37
+ 0.215415 3 6 cbr 500 ------- 0 1.0 5.0 37 37
- 0.215415 3 6 cbr 500 ------- 0 1.0 5.0 37 37
r 0.215455 3 6 cbr 500 ------- 0 1.0 5.0 35 35
h 0.215455 6 8 cbr 500 ------- 0 1.0 5.0 35 35
+ 0.215455 6 8 cbr 500 ------- 0 1.0 5.0 33 33
- 0.215455 6 8 cbr 500 ------- 0 1.0 5.0 33 33
r 0.21587 8 5 cbr 500 ------- 0 1.0 5.0 31 31
+ 0.22 1 7 cbr 500 ------- 0 1.0 5.0 40 40
- 0.22 1 7 cbr 500 ------- 0 1.0 5.0 40 40
h 0.22 1 7 cbr 500 ------- 0 1.0 5.0 42 42
r 0.220415 7 3 cbr 500 ------- 0 1.0 5.0 38 38
d 0.220415 3 6 cbr 500 ------- 0 1.0 5.0 38 38
+ 0.220455 6 8 cbr 500 ------- 0 1.0 5.0 34 34
- 0.220455 6 8 cbr 500 ------- 0 1.0 5.0 34 34
r 0.22087 8 5 cbr 500 ------- 0 1.0 5.0 32 32
+ 0.225 1 7 cbr 500 ------- 0 1.0 5.0 41 41
- 0.225 1 7 cbr 500 ------- 0 1.0 5.0 41 41
h 0.225 1 7 cbr 500 ------- 0 1.0 5.0 43 43
r 0.225415 7 3 cbr 500 ------- 0 1.0 5.0 39 39
+ 0.225415 3 6 cbr 500 ------- 0 1.0 5.0 39 39
- 0.225415 3 6 cbr 500 ------- 0 1.0 5.0 39 39
r 0.225455 3 6 cbr 500 ------- 0 1.0 5.0 37 37
h 0.225455 6 8 cbr 500 ------- 0 1.0 5.0 37 37
+ 0.225455 6 8 cbr 500 ------- 0 1.0 5.0 35 35
- 0.225455 6 8 cbr 500 ------- 0 1.0 5.0 35 35
r 0.22587 8 5 cbr 500 ------- 0 1.0 5.0 33 33
+ 0.23 1 7 cbr 500 ------- 0 1.0 5.0 42 42
- 0.23 1 7 cbr 500 ------- 0 1.0 5.0 42 42
h 0.23 1 7 cbr 500 ------- 0 1.0 5.0 44 44
r 0.230415 7 3 cbr 500 ------- 0 1.0 5.0 40 40
+ 0.230415 3 6 cbr 500 ------- 0 1.0 5.0 40 40
- 0.230415 3 6 cbr 500 ------- 0 1.0 5.0 40 40
r 0.23087 8 5 cbr 500 ------- 0 1.0 5.0 34 34
+ 0.235 1 7 cbr 500 ------- 0 1.0 5.0 43 43
- 0.235 1 7 cbr 500 ------- 0 1.0 5.0 43 43
h 0.235 1 7 cbr 500 ------- 0 1.0 5.0 45 45
r 0.235415 7 3 cbr 500 ------- 0 1.0 5.0 41 41
+ 0.235415 3 6 cbr 500 ------- 0 1.0 5.0 41 41
- 0.235415 3 6 cbr 500 ------- 0 1.0 5.0 41 41
r 0.235455 3 6 cbr 500 ------- 0 1.0 5.0 39 39
h 0.235455 6 8 cbr 500 ------- 0 1.0 5.0 39 39
+ 0.235455 6 8 cbr 500 ------- 0 1.0 5.0 37 37
- 0.235455 6 8 cbr 500 ------- 0 1.0 5.0 37 37
r 0.23587 8 5 cbr 500 ------- 0 1.0 5.0 35 35
+ 0.24 1 7 cbr 500 ------- 0 1.0 5.0 44 44
- 0.24 1 7 cbr 500 ------- 0 1.0 5.0 44 44
h 0.24 1 7 cbr 500 ------- 0 1.0 5.0 46 46
r 0.240415 7 3 cbr 500 ------- 0 1.0 5.0 42 42
d 0.240415 3 6 cbr 500 ------- 0 1.0 5.0 42 42
r 0.240455 3 6 cbr 500 ------- 0 1.0 5.0 40 40
h 0.240455 6 8 cbr 500 ------- 0 1.0 5.0 40 40
+ 0.245 1 7 cbr 500 ------- 0 1.0 5.0 45 45
- 0.245 1 7 cbr 500 ------- 0 1.0 5.0 45 45
h 0.245 1 7 cbr 500 ------- 0 1.0 5.0 47 47
r 0.245415 7 3 cbr 500 ------- 0 1.0 5.0 43 43
d 0.245415 3 6 cbr 500 ------- 0 1.0 5.0 43 43
r 0.245455 3 6 cbr 500 ------- 0 1.0 5.0 41 41
h 0.245455 6 8 cbr 500 ------- 0 1.0 5.0 41 41
+ 0.245455 6 8 cbr 500 ------- 0 1.0 5.0 39 39
- 0.245455 6 8 cbr 500 ------- 0 1.0 5.0 39 39
r 0.24587 8 5 cbr 500 ------- 0 1.0 5.0 37 37
+ 0.25 1 7 cbr 500 ------- 0 1.0 5.0 46 46
- 0.25 1 7 cbr 500 ------- 0 1.0 5.0 46 46
h 0.25 1 7 cbr 500 ------- 0 1.0 5.0 48 48
r 0.250415 7 3 cbr 500 ------- 0 1.0 5.0 44 44
d 0.250415 3 6 cbr 500 ------- 0 1.0 5.0 44 44
+ 0.250455 6 8 cbr 500 ------- 0 1.0 5.0 40 40
- 0.250455 6 8 cbr 500 ------- 0 1.0 5.0 40 40
+ 0.255 1 7 cbr 500 ------- 0 1.0 5.0 47 47
- 0.255 1 7 cbr 500 ------- 0 1.0 5.0 47 47
h 0.255 1 7 cbr 500 ------- 0 1.0 5.0 49 49
r 0.255415 7 3 cbr 500 ------- 0 1.0 5.0 45 45
+ 0.255415 3 6 cbr 500 ------- 0 1.0 5.0 45 45
- 0.255415 3 6 cbr 500 ------- 0 1.0 5.0 45 45
+ 0.255455 6 8 cbr 500 ------- 0 1.0 5.0 41 41
- 0.255455 6 8 cbr 500 ------- 0 1.0 5.0 41 41
r 0.25587 8 5 cbr 500 ------- 0 1.0 5.0 39 39
+ 0.26 1 7 cbr 500 ------- 0 1.0 5.0 48 48
- 0.26 1 7 cbr 500 ------- 0 1.0 5.0 48 48
h 0.26 1 7 cbr 500 ------- 0 1.0 5.0 50 50
r 0.260415 7 3 cbr 500 ------- 0 1.0 5.0 46 46
+ 0.260415 3 6 cbr 500 ------- 0 1.0 5.0 46 46
- 0.260415 3 6 cbr 500 ------- 0 1.0 5.0 46 46
r 0.26087 8 5 cbr 500 ------- 0 1.0 5.0 40 40
+ 0.265 1 7 cbr 500 ------- 0 1.0 5.0 49 49
- 0.265 1 7 cbr 500 ------- 0 1.0 5.0 49 49
h 0.265 1 7 cbr 500 ------- 0 1.0 5.0 51 51
r 0.265415 7 3 cbr 500 ------- 0 1.0 5.0 47 47
d 0.265415 3 6 cbr 500 ------- 0 1.0 5.0 47 47
r 0.265455 3 6 cbr 500 ------- 0 1.0 5.0 45 45
h 0.265455 6 8 cbr 500 ------- 0 1.0 5.0 45 45
r 0.26587 8 5 cbr 500 ------- 0 1.0 5.0 41 41
+ 0.27 1 7 cbr 500 ------- 0 1.0 5.0 50 50
- 0.27 1 7 cbr 500 ------- 0 1.0 5.0 50 50
h 0.27 1 7 cbr 500 ------- 0 1.0 5.0 52 52
r 0.270415 7 3 cbr 500 ------- 0 1.0 5.0 48 48
+ 0.270415 3 6 cbr 500 ------- 0 1.0 5.0 48 48
- 0.270415 3 6 cbr 500 ------- 0 1.0 5.0 48 48
r 0.270455 3 6 cbr 500 ------- 0 1.0 5.0 46 46
h 0.270455 6 8 cbr 500 ------- 0 1.0 5.0 46 46
+ 0.275 1 7 cbr 500 ------- 0 1.0 5.0 51 51
- 0.275 1 7 cbr 500 ------- 0 1.0 5.0 51 51
h 0.275 1 7 cbr 500 ------- 0 1.0 5.0 53 53
r 0.275415 7 3 cbr 500 ------- 0 1.0 5.0 49 49
+ 0.275415 3 6 cbr 500 ------- 0 1.0 5.0 49 49
- 0.275415 3 6 cbr 500 ------- 0 1.0 5.0 49 49
+ 0.275455 6 8 cbr 500 ------- 0 1.0 5.0 45 45
- 0.275455 6 8 cbr 500 ------- 0 1.0 5.0 45 45
+ 0.28 1 7 cbr 500 ------- 0 1.0 5.0 52 52
- 0.28 1 7 cbr 500 ------- 0 1.0 5.0 52 52
h 0.28 1 7 cbr 500 ------- 0 1.0 5.0 54 54
r 0.280415 7 3 cbr 500 ------- 0 1.0 5.0 50 50
+ 0.280415 3 6 cbr 500 ------- 0 1.0 5.0 50 50
- 0.280415 3 6 cbr 500 ------- 0 1.0 5.0 50 50
r 0.280455 3 6 cbr 500 ------- 0 1.0 5.0 48 48
h 0.280455 6 8 cbr 500 ------- 0 1.0 5.0 48 48
+ 0.280455 6 8 cbr 500 ------- 0 1.0 5.0 46 46
- 0.280455 6 8 cbr 500 ------- 0 1.0 5.0 46 46
+ 0.285 1 7 cbr 500 ------- 0 1.0 5.0 53 53
- 0.285 1 7 cbr 500 ------- 0 1.0 5.0 53 53
h 0.285 1 7 cbr 500 ------- 0 1.0 5.0 55 55
r 0.285415 7 3 cbr 500 ------- 0 1.0 5.0 51 51
+ 0.285415 3 6 cbr 500 ------- 0 1.0 5.0 51 51
- 0.285415 3 6 cbr 500 ------- 0 1.0 5.0 51 51
r 0.285455 3 6 cbr 500 ------- 0 1.0 5.0 49 49
h 0.285455 6 8 cbr 500 ------- 0 1.0 5.0 49 49
r 0.28587 8 5 cbr 500 ------- 0 1.0 5.0 45 45
+ 0.29 1 7 cbr 500 ------- 0 1.0 5.0 54 54
- 0.29 1 7 cbr 500 ------- 0 1.0 5.0 54 54
h 0.29 1 7 cbr 500 ------- 0 1.0 5.0 56 56
r 0.290415 7 3 cbr 500 ------- 0 1.0 5.0 52 52
+ 0.290415 3 6 cbr 500 ------- 0 1.0 5.0 52 52
- 0.290415 3 6 cbr 500 ------- 0 1.0 5.0 52 52
r 0.290455 3 6 cbr 500 ------- 0 1.0 5.0 50 50
h 0.290455 6 8 cbr 500 ------- 0 1.0 5.0 50 50
+ 0.290455 6 8 cbr 500 ------- 0 1.0 5.0 48 48
- 0.290455 6 8 cbr 500 ------- 0 1.0 5.0 48 48
r 0.29087 8 5 cbr 500 ------- 0 1.0 5.0 46 46
+ 0.295 1 7 cbr 500 ------- 0 1.0 5.0 55 55
- 0.295 1 7 cbr 500 ------- 0 1.0 5.0 55 55
h 0.295 1 7 cbr 500 ------- 0 1.0 5.0 57 57
r 0.295415 7 3 cbr 500 ------- 0 1.0 5.0 53 53
+ 0.295415 3 6 cbr 500 ------- 0 1.0 5.0 53 53
- 0.295415 3 6 cbr 500 ------- 0 1.0 5.0 53 53
r 0.295455 3 6 cbr 500 ------- 0 1.0 5.0 51 51
h 0.295455 6 8 cbr 500 ------- 0 1.0 5.0 51 51
+ 0.295455 6 8 cbr 500 ------- 0 1.0 5.0 49 49
- 0.295455 6 8 cbr 500 ------- 0 1.0 5.0 49 49
+ 0.3 1 7 cbr 500 ------- 0 1.0 5.0 56 56
- 0.3 1 7 cbr 500 ------- 0 1.0 5.0 56 56
h 0.3 1 7 cbr 500 ------- 0 1.0 5.0 58 58
r 0.300415 7 3 cbr 500 ------- 0 1.0 5.0 54 54
+ 0.300415 3 6 cbr 500 ------- 0 1.0 5.0 54 54
- 0.300415 3 6 cbr 500 ------- 0 1.0 5.0 54 54
r 0.300455 3 6 cbr 500 ------- 0 1.0 5.0 52 52
h 0.300455 6 8 cbr 500 ------- 0 1.0 5.0 52 52
+ 0.300455 6 8 cbr 500 ------- 0 1.0 5.0 50 50
- 0.300455 6 8 cbr 500 ------- 0 1.0 5.0 50 50
r 0.30087 8 5 cbr 500 ------- 0 1.0 5.0 48 48
+ 0.305 1 7 cbr 500 ------- 0 1.0 5.0 57 57
- 0.305 1 7 cbr 500 ------- 0 1.0 5.0 57 57
h 0.305 1 7 cbr 500 ------- 0 1.0 5.0 59 59
r 0.305415 7 3 cbr 500 ------- 0 1.0 5.0 55 55
+ 0.305415 3 6 cbr 500 ------- 0 1.0 5.0 55 55
- 0.305415 3 6 cbr 500 ------- 0 1.0 5.0 55 55
r 0.305455 3 6 cbr 500 ------- 0 1.0 5.0 53 53
h 0.305455 6 8 cbr 500 ------- 0 1.0 5.0 53 53
+ 0.305455 6 8 cbr 500 ------- 0 1.0 5.0 51 51
- 0.305455 6 8 cbr 500 ------- 0 1.0 5.0 51 51
r 0.30587 8 5 cbr 500 ------- 0 1.0 5.0 49 49
+ 0.31 1 7 cbr 500 ------- 0 1.0 5.0 58 58
- 0.31 1 7 cbr 500 ------- 0 1.0 5.0 58 58
h 0.31 1 7 cbr 500 ------- 0 1.0 5.0 60 60
r 0.310415 7 3 cbr 500 ------- 0 1.0 5.0 56 56
d 0.310415 3 6 cbr 500 ------- 0 1.0 5.0 56 56
r 0.310455 3 6 cbr 500 ------- 0 1.0 5.0 54 54
h 0.310455 6 8 cbr 500 ------- 0 1.0 5.0 54 54
+ 0.310455 6 8 cbr 500 ------- 0 1.0 5.0 52 52
- 0.310455 6 8 cbr 500 ------- 0 1.0 5.0 52 52
r 0.31087 8 5 cbr 500 ------- 0 1.0 5.0 50 50
+ 0.315 1 7 cbr 500 ------- 0 1.0 5.0 59 59
- 0.315 1 7 cbr 500 ------- 0 1.0 5.0 59 59
h 0.315 1 7 cbr 500 ------- 0 1.0 5.0 61 61
r 0.315415 7 3 cbr 500 ------- 0 1.0 5.0 57 57
+ 0.315415 3 6 cbr 500 ------- 0 1.0 5.0 57 57
- 0.315415 3 6 cbr 500 ------- 0 1.0 5.0 57 57
r 0.315455 3 6 cbr 500 ------- 0 1.0 5.0 55 55
h 0.315455 6 8 cbr 500 ------- 0 1.0 5.0 55 55
+ 0.315455 6 8 cbr 500 ------- 0 1.0 5.0 53 53
- 0.315455 6 8 cbr 500 ------- 0 1.0 5.0 53 53
r 0.31587 8 5 cbr 500 ------- 0 1.0 5.0 51 51
+ 0.32 1 7 cbr 500 ------- 0 1.0 5.0 60 60
- 0.32 1 7 cbr 500 ------- 0 1.0 5.0 60 60
h 0.32 1 7 cbr 500 ------- 0 1.0 5.0 62 62
r 0.320415 7 3 cbr 500 ------- 0 1.0 5.0 58 58
d 0.320415 3 6 cbr 500 ------- 0 1.0 5.0 58 58
+ 0.320455 6 8 cbr 500 ------- 0 1.0 5.0 54 54
- 0.320455 6 8 cbr 500 ------- 0 1.0 5.0 54 54
r 0.32087 8 5 cbr 500 ------- 0 1.0 5.0 52 52
+ 0.325 1 7 cbr 500 ------- 0 1.0 5.0 61 61
- 0.325 1 7 cbr 500 ------- 0 1.0 5.0 61 61
h 0.325 1 7 cbr 500 ------- 0 1.0 5.0 63 63
r 0.325415 7 3 cbr 500 ------- 0 1.0 5.0 59 59
+ 0.325415 3 6 cbr 500 ------- 0 1.0 5.0 59 59
- 0.325415 3 6 cbr 500 ------- 0 1.0 5.0 59 59
r 0.325455 3 6 cbr 500 ------- 0 1.0 5.0 57 57
h 0.325455 6 8 cbr 500 ------- 0 1.0 5.0 57 57
+ 0.325455 6 8 cbr 500 ------- 0 1.0 5.0 55 55
- 0.325455 6 8 cbr 500 ------- 0 1.0 5.0 55 55
r 0.32587 8 5 cbr 500 ------- 0 1.0 5.0 53 53
+ 0.33 1 7 cbr 500 ------- 0 1.0 5.0 62 62
- 0.33 1 7 cbr 500 ------- 0 1.0 5.0 62 62
h 0.33 1 7 cbr 500 ------- 0 1.0 5.0 64 64
r 0.330415 7 3 cbr 500 ------- 0 1.0 5.0 60 60
+ 0.330415 3 6 cbr 500 ------- 0 1.0 5.0 60 60
- 0.330415 3 6 cbr 500 ------- 0 1.0 5.0 60 60
r 0.33087 8 5 cbr 500 ------- 0 1.0 5.0 54 54
+ 0.335 1 7 cbr 500 ------- 0 1.0 5.0 63 63
- 0.335 1 7 cbr 500 ------- 0 1.0 5.0 63 63
h 0.335 1 7 cbr 500 ------- 0 1.0 5.0 65 65
r 0.335415 7 3 cbr 500 ------- 0 1.0 5.0 61 61
+ 0.335415 3 6 cbr 500 ------- 0 1.0 5.0 61 61
- 0.335415 3 6 cbr 500 ------- 0 1.0 5.0 61 61
r 0.335455 3 6 cbr 500 ------- 0 1.0 5.0 59 59
h 0.335455 6 8 cbr 500 ------- 0 1.0 5.0 59 59
+ 0.335455 6 8 cbr 500 ------- 0 1.0 5.0 57 57
- 0.335455 6 8 cbr 500 ------- 0 1.0 5.0 57 57
r 0.33587 8 5 cbr 500 ------- 0 1.0 5.0 55 55
+ 0.34 1 7 cbr 500 ------- 0 1.0 5.0 64 64
- 0.34 1 7 cbr 500 ------- 0 1.0 5.0 64 64
h 0.34 1 7 cbr 500 ------- 0 1.0 5.0 66 66
r 0.340415 7 3 cbr 500 ------- 0 1.0 5.0 62 62
+ 0.340415 3 6 cbr 500 ------- 0 1.0 5.0 62 62
- 0.340415 3 6 cbr 500 ------- 0 1.0 5.0 62 62
r 0.340455 3 6 cbr 500 ------- 0 1.0 5.0 60 60
h 0.340455 6 8 cbr 500 ------- 0 1.0 5.0 60 60
+ 0.345 1 7 cbr 500 ------- 0 1.0 5.0 65 65
- 0.345 1 7 cbr 500 ------- 0 1.0 5.0 65 65
h 0.345 1 7 cbr 500 ------- 0 1.0 5.0 67 67
r 0.345415 7 3 cbr 500 ------- 0 1.0 5.0 63 63
+ 0.345415 3 6 cbr 500 ------- 0 1.0 5.0 63 63
- 0.345415 3 6 cbr 500 ------- 0 1.0 5.0 63 63
r 0.345455 3 6 cbr 500 ------- 0 1.0 5.0 61 61
h 0.345455 6 8 cbr 500 ------- 0 1.0 5.0 61 61
+ 0.345455 6 8 cbr 500 ------- 0 1.0 5.0 59 59
- 0.345455 6 8 cbr 500 ------- 0 1.0 5.0 59 59
r 0.34587 8 5 cbr 500 ------- 0 1.0 5.0 57 57
+ 0.35 1 7 cbr 500 ------- 0 1.0 5.0 66 66
- 0.35 1 7 cbr 500 ------- 0 1.0 5.0 66 66
h 0.35 1 7 cbr 500 ------- 0 1.0 5.0 68 68
r 0.350415 7 3 cbr 500 ------- 0 1.0 5.0 64 64
d 0.350415 3 6 cbr 500 ------- 0 1.0 5.0 64 64
r 0.350455 3 6 cbr 500 ------- 0 1.0 5.0 62 62
h 0.350455 6 8 cbr 500 ------- 0 1.0 5.0 62 62
+ 0.350455 6 8 cbr 500 ------- 0 1.0 5.0 60 60
- 0.350455 6 8 cbr 500 ------- 0 1.0 5.0 60 60
+ 0.355 1 7 cbr 500 ------- 0 1.0 5.0 67 67
- 0.355 1 7 cbr 500 ------- 0 1.0 5.0 67 67
h 0.355 1 7 cbr 500 ------- 0 1.0 5.0 69 69
r 0.355415 7 3 cbr 500 ------- 0 1.0 5.0 65 65
+ 0.355415 3 6 cbr 500 ------- 0 1.0 5.0 65 65
- 0.355415 3 6 cbr 500 ------- 0 1.0 5.0 65 65
r 0.355455 3 6 cbr 500 ------- 0 1.0 5.0 63 63
h 0.355455 6 8 cbr 500 ------- 0 1.0 5.0 63 63
+ 0.355455 6 8 cbr 500 ------- 0 1.0 5.0 61 61
- 0.355455 6 8 cbr 500 ------- 0 1.0 5.0 61 61
r 0.35587 8 5 cbr 500 ------- 0 1.0 5.0 59 59
+ 0.36 1 7 cbr 500 ------- 0 1.0 5.0 68 68
- 0.36 1 7 cbr 500 ------- 0 1.0 5.0 68 68
h 0.36 1 7 cbr 500 ------- 0 1.0 5.0 70 70
r 0.360415 7 3 cbr 500 ------- 0 1.0 5.0 66 66
d 0.360415 3 6 cbr 500 ------- 0 1.0 5.0 66 66
+ 0.360455 6 8 cbr 500 ------- 0 1.0 5.0 62 62
- 0.360455 6 8 cbr 500 ------- 0 1.0 5.0 62 62
r 0.36087 8 5 cbr 500 ------- 0 1.0 5.0 60 60
+ 0.365 1 7 cbr 500 ------- 0 1.0 5.0 69 69
- 0.365 1 7 cbr 500 ------- 0 1.0 5.0 69 69
h 0.365 1 7 cbr 500 ------- 0 1.0 5.0 71 71
r 0.365415 7 3 cbr 500 ------- 0 1.0 5.0 67 67
+ 0.365415 3 6 cbr 500 ------- 0 1.0 5.0 67 67
- 0.365415 3 6 cbr 500 ------- 0 1.0 5.0 67 67
r 0.365455 3 6 cbr 500 ------- 0 1.0 5.0 65 65
h 0.365455 6 8 cbr 500 ------- 0 1.0 5.0 65 65
+ 0.365455 6 8 cbr 500 ------- 0 1.0 5.0 63 63
- 0.365455 6 8 cbr 500 ------- 0 1.0 5.0 63 63
r 0.36587 8 5 cbr 500 ------- 0 1.0 5.0 61 61
+ 0.37 1 7 cbr 500 ------- 0 1.0 5.0 70 70
- 0.37 1 7 cbr 500 ------- 0 1.0 5.0 70 70
h 0.37 1 7 cbr 500 ------- 0 1.0 5.0 72 72
r 0.370415 7 3 cbr 500 ------- 0 1.0 5.0 68 68
d 0.370415 3 6 cbr 500 ------- 0 1.0 5.0 68 68
r 0.37087 8 5 cbr 500 ------- 0 1.0 5.0 62 62
+ 0.375 1 7 cbr 500 ------- 0 1.0 5.0 71 71
- 0.375 1 7 cbr 500 ------- 0 1.0 5.0 71 71
h 0.375 1 7 cbr 500 ------- 0 1.0 5.0 73 73
r 0.375415 7 3 cbr 500 ------- 0 1.0 5.0 69 69
+ 0.375415 3 6 cbr 500 ------- 0 1.0 5.0 69 69
- 0.375415 3 6 cbr 500 ------- 0 1.0 5.0 69 69
r 0.375455 3 6 cbr 500 ------- 0 1.0 5.0 67 67
h 0.375455 6 8 cbr 500 ------- 0 1.0 5.0 67 67
+ 0.375455 6 8 cbr 500 ------- 0 1.0 5.0 65 65
- 0.375455 6 8 cbr 500 ------- 0 1.0 5.0 65 65
r 0.37587 8 5 cbr 500 ------- 0 1.0 5.0 63 63
+ 0.38 1 7 cbr 500 ------- 0 1.0 5.0 72 72
- 0.38 1 7 cbr 500 ------- 0 1.0 5.0 72 72
h 0.38 1 7 cbr 500 ------- 0 1.0 5.0 74 74
r 0.380415 7 3 cbr 500 ------- 0 1.0 5.0 70 70