s 0.036400876 _0_ RTR  --- 0 message 32 [0 0 0 0] ------- [0:255 -1:255 32 0] 
r 0.037421112 _1_ RTR  --- 0 message 32 [0 ffffffff 0 800] ------- [0:255 -1:255 32 0] 
M 0.10000 0 (50.00, 50.00, 0.00), (50.00, 50.00), 15.00
M 0.10000 1 (100.00, 100.00, 0.00), (100.00, 100.00), 25.00
M 0.10000 2 (600.00, 600.00, 0.00), (600.00, 600.00), 25.00
s 0.182633994 _1_ RTR  --- 1 message 32 [0 0 0 0] ------- [1:255 -1:255 32 0] 
r 0.183694230 _0_ RTR  --- 1 message 32 [0 ffffffff 1 800] ------- [1:255 -1:255 32 0] 
s 0.882774710 _2_ RTR  --- 2 message 32 [0 0 0 0] ------- [2:255 -1:255 32 0] 
s 5.000000000 _0_ AGT  --- 3 tcp 40 [0 0 0 0] ------- [0:0 1:0 32 0] [0 0] 0 0
r 5.000000000 _0_ RTR  --- 3 tcp 40 [0 0 0 0] ------- [0:0 1:0 32 0] [0 0] 0 0
s 5.000000000 _0_ RTR  --- 3 tcp 60 [0 0 0 0] ------- [0:0 1:0 32 1] [0 0] 0 0
s 5.000000000 _1_ AGT  --- 4 tcp 40 [0 0 0 0] ------- [1:1 2:0 32 0] [0 0] 0 0
r 5.000000000 _1_ RTR  --- 4 tcp 40 [0 0 0 0] ------- [1:1 2:0 32 0] [0 0] 0 0
r 5.004812650 _1_ AGT  --- 3 tcp 60 [13a 1 0 800] ------- [0:0 1:0 32 1] [0 0] 1 0
s 5.004812650 _1_ AGT  --- 5 ack 40 [0 0 0 0] ------- [1:0 0:0 32 0] [0 0] 0 0
r 5.004812650 _1_ RTR  --- 5 ack 40 [0 0 0 0] ------- [1:0 0:0 32 0] [0 0] 0 0
s 5.004812650 _1_ RTR  --- 5 ack 60 [0 0 0 0] ------- [1:0 0:0 32 0] [0 0] 0 0
r 5.006977357 _0_ AGT  --- 5 ack 60 [13a 0 1 800] ------- [1:0 0:0 32 0] [0 0] 1 0
s 5.006977357 _0_ AGT  --- 6 tcp 1040 [0 0 0 0] ------- [0:0 1:0 32 0] [1 0] 0 0
r 5.006977357 _0_ RTR  --- 6 tcp 1040 [0 0 0 0] ------- [0:0 1:0 32 0] [1 0] 0 0
s 5.006977357 _0_ RTR  --- 6 tcp 1060 [0 0 0 0] ------- [0:0 1:0 32 1] [1 0] 0 0
s 5.006977357 _0_ AGT  --- 7 tcp 1040 [0 0 0 0] ------- [0:0 1:0 32 0] [2 0] 0 0
r 5.006977357 _0_ RTR  --- 7 tcp 1040 [0 0 0 0] ------- [0:0 1:0 32 0] [2 0] 0 0
s 5.006977357 _0_ RTR  --- 7 tcp 1060 [0 0 0 0] ------- [0:0 1:0 32 1] [2 0] 0 0
r 5.016982064 _1_ AGT  --- 6 tcp 1060 [13a 1 0 800] ------- [0:0 1:0 32 1] [1 0] 1 0
s 5.016982064 _1_ AGT  --- 8 ack 40 [0 0 0 0] ------- [1:0 0:0 32 0] [1 0] 0 0
r 5.016982064 _1_ RTR  --- 8 ack 40 [0 0 0 0] ------- [1:0 0:0 32 0] [1 0] 0 0
s 5.016982064 _1_ RTR  --- 8 ack 60 [0 0 0 0] ------- [1:0 0:0 32 0] [1 0] 0 0
r 5.026987007 _1_ AGT  --- 7 tcp 1060 [13a 1 0 800] ------- [0:0 1:0 32 1] [2 0] 1 0
s 5.026987007 _1_ AGT  --- 9 ack 40 [0 0 0 0] ------- [1:0 0:0 32 0] [2 0] 0 0
r 5.026987007 _1_ RTR  --- 9 ack 40 [0 0 0 0] ------- [1:0 0:0 32 0] [2 0] 0 0
s 5.026987007 _1_ RTR  --- 9 ack 60 [0 0 0 0] ------- [1:0 0:0 32 0] [2 0] 0 0
r 5.029151714 _0_ AGT  --- 8 ack 60 [13a 0 1 800] ------- [1:0 0:0 32 0] [1 0] 1 0
s 5.029151714 _0_ AGT  --- 10 tcp 1040 [0 0 0 0] ------- [0:0 1:0 32 0] [3 0] 0 0
r 5.029151714 _0_ RTR  --- 10 tcp 1040 [0 0 0 0] ------- [0:0 1:0 32 0] [3 0] 0 0
s 5.029151714 _0_ RTR  --- 10 tcp 1060 [0 0 0 0] ------- [0:0 1:0 32 1] [3 0] 0 0
s 5.029151714 _0_ AGT  --- 11 tcp 1040 [0 0 0 0] ------- [0:0 1:0 32 0] [4 0] 0 0
r 5.029151714 _0_ RTR  --- 11 tcp 1040 [0 0 0 0] ------- [0:0 1:0 32 0] [4 0] 0 0
s 5.029151714 _0_ RTR  --- 11 tcp 1060 [0 0 0 0] ------- [0:0 1:0 32 1] [4 0] 0 0
r 5.039196421 _1_ AGT  --- 10 tcp 1060 [13a 1 0 800] ------- [0:0 1:0 32 1] [3 0] 1 0
s 5.039196421 _1_ AGT  --- 12 ack 40 [0 0 0 0] ------- [1:0 0:0 32 0] [3 0] 0 0
r 5.039196421 _1_ RTR  --- 12 ack 40 [0 0 0 0] ------- [1:0 0:0 32 0] [3 0] 0 0
s 5.039196421 _1_ RTR  --- 12 ack 60 [0 0 0 0] ------- [1:0 0:0 32 0] [3 0] 0 0
r 5.049361364 _1_ AGT  --- 11 tcp 1060 [13a 1 0 800] ------- [0:0 1:0 32 1] [4 0] 1 0
s 5.049361364 _1_ AGT  --- 13 ack 40 [0 0 0 0] ------- [1:0 0:0 32 0] [4 0] 0 0
r 5.049361364 _1_ RTR  --- 13 ack 40 [0 0 0 0] ------- [1:0 0:0 32 0] [4 0] 0 0
s 5.049361364 _1_ RTR  --- 13 ack 60 [0 0 0 0] ------- [1:0 0:0 32 0] [4 0] 0 0
r 5.051546071 _0_ AGT  --- 9 ack 60 [13a 0 1 800] ------- [1:0 0:0 32 0] [2 0] 1 0
s 5.051546071 _0_ AGT  --- 14 tcp 1040 [0 0 0 0] ------- [0:0 1:0 32 0] [5 0] 0 0
r 5.051546071 _0_ RTR  --- 14 tcp 1040 [0 0 0 0] ------- [0:0 1:0 32 0] [5 0] 0 0
s 5.051546071 _0_ RTR  --- 14 tcp 1060 [0 0 0 0] ------- [0:0 1:0 32 1] [5 0] 0 0
s 5.051546071 _0_ AGT  --- 15 tcp 1040 [0 0 0 0] ------- [0:0 1:0 32 0] [6 0] 0 0
r 5.051546071 _0_ RTR  --- 15 tcp 1040 [0 0 0 0] ------- [0:0 1:0 32 0] [6 0] 0 0
s 5.051546071 _0_ RTR  --- 15 tcp 1060 [0 0 0 0] ------- [0:0 1:0 32 1] [6 0] 0 0
r 5.061910778 _1_ AGT  --- 14 tcp 1060 [13a 1 0 800] ------- [0:0 1:0 32 1] [5 0] 1 0
s 5.061910778 _1_ AGT  --- 16 ack 40 [0 0 0 0] ------- [1:0 0:0 32 0] [5 0] 0 0
r 5.061910778 _1_ RTR  --- 16 ack 40 [0 0 0 0] ------- [1:0 0:0 32 0] [5 0] 0 0
s 5.061910778 _1_ RTR  --- 16 ack 60 [0 0 0 0] ------- [1:0 0:0 32 0] [5 0] 0 0
r 5.063935485 _0_ AGT  --- 12 ack 60 [13a 0 1 800] ------- [1:0 0:0 32 0] [3 0] 1 0
s 5.063935485 _0_ AGT  --- 17 tcp 1040 [0 0 0 0] ------- [0:0 1:0 32 0] [7 0] 0 0
r 5.063935485 _0_ RTR  --- 17 tcp 1040 [0 0 0 0] ------- [0:0 1:0 32 0] [7 0] 0 0
s 5.063935485 _0_ RTR  --- 17 tcp 1060 [0 0 0 0] ------- [0:0 1:0 32 1] [7 0] 0 0
s 5.063935485 _0_ AGT  --- 18 tcp 1040 [0 0 0 0] ------- [0:0 1:0 32 0] [8 0] 0 0
r 5.063935485 _0_ RTR  --- 18 tcp 1040 [0 0 0 0] ------- [0:0 1:0 32 0] [8 0] 0 0
s 5.063935485 _0_ RTR  --- 18 tcp 1060 [0 0 0 0] ------- [0:0 1:0 32 1] [8 0] 0 0
r 5.066280428 _0_ AGT  --- 13 ack 60 [13a 0 1 800] ------- [1:0 0:0 32 0] [4 0] 1 0
s 5.066280428 _0_ AGT  --- 19 tcp 1040 [0 0 0 0] ------- [0:0 1:0 32 0] [9 0] 0 0
r 5.066280428 _0_ RTR  --- 19 tcp 1040 [0 0 0 0] ------- [0:0 1:0 32 0] [9 0] 0 0
s 5.066280428 _0_ RTR  --- 19 tcp 1060 [0 0 0 0] ------- [0:0 1:0 32 1] [9 0] 0 0
s 5.066280428 _0_ AGT  --- 20 tcp 1040 [0 0 0 0] ------- [0:0 1:0 32 0] [10 0] 0 0
r 5.066280428 _0_ RTR  --- 20 tcp 1040 [0 0 0 0] ------- [0:0 1:0 32 0] [10 0] 0 0
s 5.066280428 _0_ RTR  --- 20 tcp 1060 [0 0 0 0] ------- [0:0 1:0 32 1] [10 0] 0 0
r 5.068305371 _0_ AGT  --- 16 ack 60 [13a 0 1 800] ------- [1:0 0:0 32 0] [5 0] 1 0
s 5.068305371 _0_ AGT  --- 21 tcp 1040 [0 0 0 0] ------- [0:0 1:0 32 0] [11 0] 0 0
r 5.068305371 _0_ RTR  --- 21 tcp 1040 [0 0 0 0] ------- [0:0 1:0 32 0] [11 0] 0 0
s 5.068305371 _0_ RTR  --- 21 tcp 1060 [0 0 0 0] ------- [0:0 1:0 32 1] [11 0] 0 0
s 5.068305371 _0_ AGT  --- 22 tcp 1040 [0 0 0 0] ------- [0:0 1:0 32 0] [12 0] 0 0
r 5.068305371 _0_ RTR  --- 22 tcp 1040 [0 0 0 0] ------- [0:0 1:0 32 0] [12 0] 0 0
s 5.068305371 _0_ RTR  --- 22 tcp 1060 [0 0 0 0] ------- [0:0 1:0 32 1] [12 0] 0 0
r 5.078390078 _1_ AGT  --- 15 tcp 1060 [13a 1 0 800] ------- [0:0 1:0 32 1] [6 0] 1 0
s 5.078390078 _1_ AGT  --- 23 ack 40 [0 0 0 0] ------- [1:0 0:0 32 0] [6 0] 0 0
r 5.078390078 _1_ RTR  --- 23 ack 40 [0 0 0 0] ------- [1:0 0:0 32 0] [6 0] 0 0
s 5.078390078 _1_ RTR  --- 23 ack 60 [0 0 0 0] ------- [1:0 0:0 32 0] [6 0] 0 0
r 5.080594785 _0_ AGT  --- 23 ack 60 [13a 0 1 800] ------- [1:0 0:0 32 0] [6 0] 1 0
s 5.080594785 _0_ AGT  --- 24 tcp 1040 [0 0 0 0] ------- [0:0 1:0 32 0] [13 0] 0 0
r 5.080594785 _0_ RTR  --- 24 tcp 1040 [0 0 0 0] ------- [0:0 1:0 32 0] [13 0] 0 0
s 5.080594785 _0_ RTR  --- 24 tcp 1060 [0 0 0 0] ------- [0:0 1:0 32 1] [13 0] 0 0
s 5.080594785 _0_ AGT  --- 25 tcp 1040 [0 0 0 0] ------- [0:0 1:0 32 0] [14 0] 0 0
r 5.080594785 _0_ RTR  --- 25 tcp 1040 [0 0 0 0] ------- [0:0 1:0 32 0] [14 0] 0 0
s 5.080594785 _0_ RTR  --- 25 tcp 1060 [0 0 0 0] ------- [0:0 1:0 32 1] [14 0] 0 0
r 5.090719492 _1_ AGT  --- 17 tcp 1060 [13a 1 0 800] ------- [0:0 1:0 32 1] [7 0] 1 0
s 5.090719492 _1_ AGT  --- 26 ack 40 [0 0 0 0] ------- [1:0 0:0 32 0] [7 0] 0 0
r 5.090719492 _1_ RTR  --- 26 ack 40 [0 0 0 0] ------- [1:0 0:0 32 0] [7 0] 0 0
s 5.090719492 _1_ RTR  --- 26 ack 60 [0 0 0 0] ------- [1:0 0:0 32 0] [7 0] 0 0
r 5.092784199 _0_ AGT  --- 26 ack 60 [13a 0 1 800] ------- [1:0 0:0 32 0] [7 0] 1 0
s 5.092784199 _0_ AGT  --- 27 tcp 1040 [0 0 0 0] ------- [0:0 1:0 32 0] [15 0] 0 0
r 5.092784199 _0_ RTR  --- 27 tcp 1040 [0 0 0 0] ------- [0:0 1:0 32 0] [15 0] 0 0
s 5.092784199 _0_ RTR  --- 27 tcp 1060 [0 0 0 0] ------- [0:0 1:0 32 1] [15 0] 0 0
s 5.092784199 _0_ AGT  --- 28 tcp 1040 [0 0 0 0] ------- [0:0 1:0 32 0] [16 0] 0 0
r 5.092784199 _0_ RTR  --- 28 tcp 1040 [0 0 0 0] ------- [0:0 1:0 32 0] [16 0] 0 0
s 5.092784199 _0_ RTR  --- 28 tcp 1060 [0 0 0 0] ------- [0:0 1:0 32 1] [16 0] 0 0
r 5.102968906 _1_ AGT  --- 18 tcp 1060 [13a 1 0 800] ------- [0:0 1:0 32 1] [8 0] 1 0
s 5.102968906 _1_ AGT  --- 29 ack 40 [0 0 0 0] ------- [1:0 0:0 32 0] [8 0] 0 0
r 5.102968906 _1_ RTR  --- 29 ack 40 [0 0 0 0] ------- [1:0 0:0 32 0] [8 0] 0 0
s 5.102968906 _1_ RTR  --- 29 ack 60 [0 0 0 0] ------- [1:0 0:0 32 0] [8 0] 0 0
r 5.105053614 _0_ AGT  --- 29 ack 60 [13a 0 1 800] ------- [1:0 0:0 32 0] [8 0] 1 0
s 5.105053614 _0_ AGT  --- 30 tcp 1040 [0 0 0 0] ------- [0:0 1:0 32 0] [17 0] 0 0
r 5.105053614 _0_ RTR  --- 30 tcp 1040 [0 0 0 0] ------- [0:0 1:0 32 0] [17 0] 0 0
s 5.105053614 _0_ RTR  --- 30 tcp 1060 [0 0 0 0] ------- [0:0 1:0 32 1] [17 0] 0 0
s 5.105053614 _0_ AGT  --- 31 tcp 1040 [0 0 0 0] ------- [0:0 1:0 32 0] [18 0] 0 0
r 5.105053614 _0_ RTR  --- 31 tcp 1040 [0 0 0 0] ------- [0:0 1:0 32 0] [18 0] 0 0
s 5.105053614 _0_ RTR  --- 31 tcp 1060 [0 0 0 0] ------- [0:0 1:0 32 1] [18 0] 0 0
r 5.115478321 _1_ AGT  --- 19 tcp 1060 [13a 1 0 800] ------- [0:0 1:0 32 1] [9 0] 1 0
s 5.115478321 _1_ AGT  --- 32 ack 40 [0 0 0 0] ------- [1:0 0:0 32 0] [9 0] 0 0
r 5.115478321 _1_ RTR  --- 32 ack 40 [0 0 0 0] ------- [1:0 0:0 32 0] [9 0] 0 0
s 5.115478321 _1_ RTR  --- 32 ack 60 [0 0 0 0] ------- [1:0 0:0 32 0] [9 0] 0 0
r 5.117663028 _0_ AGT  --- 32 ack 60 [13a 0 1 800] ------- [1:0 0:0 32 0] [9 0] 1 0
s 5.117663028 _0_ AGT  --- 33 tcp 1040 [0 0 0 0] ------- [0:0 1:0 32 0] [19 0] 0 0
r 5.117663028 _0_ RTR  --- 33 tcp 1040 [0 0 0 0] ------- [0:0 1:0 32 0] [19 0] 0 0
s 5.117663028 _0_ RTR  --- 33 tcp 1060 [0 0 0 0] ------- [0:0 1:0 32 1] [19 0] 0 0
s 5.117663028 _0_ AGT  --- 34 tcp 1040 [0 0 0 0] ------- [0:0 1:0 32 0] [20 0] 0 0
r 5.117663028 _0_ RTR  --- 34 tcp 1040 [0 0 0 0] ------- [0:0 1:0 32 0] [20 0] 0 0
s 5.117663028 _0_ RTR  --- 34 tcp 1060 [0 0 0 0] ------- [0:0 1:0 32 1] [20 0] 0 0
r 5.128027735 _1_ AGT  --- 20 tcp 1060 [13a 1 0 800] ------- [0:0 1:0 32 1] [10 0] 1 0
s 5.128027735 _1_ AGT  --- 35 ack 40 [0 0 0 0] ------- [1:0 0:0 32 0] [10 0] 0 0
r 5.128027735 _1_ RTR  --- 35 ack 40 [0 0 0 0] ------- [1:0 0:0 32 0] [10 0] 0 0
s 5.128027735 _1_ RTR  --- 35 ack 60 [0 0 0 0] ------- [1:0 0:0 32 0] [10 0] 0 0
r 5.130132442 _0_ AGT  --- 35 ack 60 [13a 0 1 800] ------- [1:0 0:0 32 0] [10 0] 1 0
s 5.130132442 _0_ AGT  --- 36 tcp 1040 [0 0 0 0] ------- [0:0 1:0 32 0] [21 0] 0 0
r 5.130132442 _0_ RTR  --- 36 tcp 1040 [0 0 0 0] ------- [0:0 1:0 32 0] [21 0] 0 0
s 5.130132442 _0_ RTR  --- 36 tcp 1060 [0 0 0 0] ------- [0:0 1:0 32 1] [21 0] 0 0
s 5.130132442 _0_ AGT  --- 37 tcp 1040 [0 0 0 0] ------- [0:0 1:0 32 0] [22 0] 0 0
r 5.130132442 _0_ RTR  --- 37 tcp 1040 [0 0 0 0] ------- [0:0 1:0 32 0] [22 0] 0 0
s 5.130132442 _0_ RTR  --- 37 tcp 1060 [0 0 0 0] ------- [0:0 1:0 32 1] [22 0] 0 0
r 5.140357149 _1_ AGT  --- 21 tcp 1060 [13a 1 0 800] ------- [0:0 1:0 32 1] [11 0] 1 0
s 5.140357149 _1_ AGT  --- 38 ack 40 [0 0 0 0] ------- [1:0 0:0 32 0] [11 0] 0 0
r 5.140357149 _1_ RTR  --- 38 ack 40 [0 0 0 0] ------- [1:0 0:0 32 0] [11 0] 0 0
s 5.140357149 _1_ RTR  --- 38 ack 60 [0 0 0 0] ------- [1:0 0:0 32 0] [11 0] 0 0
r 5.151868092 _1_ AGT  --- 22 tcp 1060 [13a 1 0 800] ------- [0:0 1:0 32 1] [12 0] 1 0
s 5.151868092 _1_ AGT  --- 39 ack 40 [0 0 0 0] ------- [1:0 0:0 32 0] [12 0] 0 0
r 5.151868092 _1_ RTR  --- 39 ack 40 [0 0 0 0] ------- [1:0 0:0 32 0] [12 0] 0 0
s 5.151868092 _1_ RTR  --- 39 ack 60 [0 0 0 0] ------- [1:0 0:0 32 0] [12 0] 0 0
r 5.154312799 _0_ AGT  --- 38 ack 60 [13a 0 1 800] ------- [1:0 0:0 32 0] [11 0] 1 0
s 5.154312799 _0_ AGT  --- 40 tcp 1040 [0 0 0 0] ------- [0:0 1:0 32 0] [23 0] 0 0
r 5.154312799 _0_ RTR  --- 40 tcp 1040 [0 0 0 0] ------- [0:0 1:0 32 0] [23 0] 0 0
s 5.154312799 _0_ RTR  --- 40 tcp 1060 [0 0 0 0] ------- [0:0 1:0 32 1] [23 0] 0 0
s 5.154312799 _0_ AGT  --- 41 tcp 1040 [0 0 0 0] ------- [0:0 1:0 32 0] [24 0] 0 0
r 5.154312799 _0_ RTR  --- 41 tcp 1040 [0 0 0 0] ------- [0:0 1:0 32 0] [24 0] 0 0
s 5.154312799 _0_ RTR  --- 41 tcp 1060 [0 0 0 0] ------- [0:0 1:0 32 1] [24 0] 0 0
r 5.156297742 _0_ AGT  --- 39 ack 60 [13a 0 1 800] ------- [1:0 0:0 32 0] [12 0] 1 0
s 5.156297742 _0_ AGT  --- 42 tcp 1040 [0 0 0 0] ------- [0:0 1:0 32 0] [25 0] 0 0
r 5.156297742 _0_ RTR  --- 42 tcp 1040 [0 0 0 0] ------- [0:0 1:0 32 0] [25 0] 0 0
s 5.156297742 _0_ RTR  --- 42 tcp 1060 [0 0 0 0] ------- [0:0 1:0 32 1] [25 0] 0 0
s 5.156297742 _0_ AGT  --- 43 tcp 1040 [0 0 0 0] ------- [0:0 1:0 32 0] [26 0] 0 0
r 5.156297742 _0_ RTR  --- 43 tcp 1040 [0 0 0 0] ------- [0:0 1:0 32 0] [26 0] 0 0
s 5.156297742 _0_ RTR  --- 43 tcp 1060 [0 0 0 0] ------- [0:0 1:0 32 1] [26 0] 0 0
r 5.166302449 _1_ AGT  --- 24 tcp 1060 [13a 1 0 800] ------- [0:0 1:0 32 1] [13 0] 1 0
s 5.166302449 _1_ AGT  --- 44 ack 40 [0 0 0 0] ------- [1:0 0:0 32 0] [13 0] 0 0
r 5.166302449 _1_ RTR  --- 44 ack 40 [0 0 0 0] ------- [1:0 0:0 32 0] [13 0] 0 0
s 5.166302449 _1_ RTR  --- 44 ack 60 [0 0 0 0] ------- [1:0 0:0 32 0] [13 0] 0 0
r 5.168487156 _0_ AGT  --- 44 ack 60 [13a 0 1 800] ------- [1:0 0:0 32 0] [13 0] 1 0
s 5.168487156 _0_ AGT  --- 45 tcp 1040 [0 0 0 0] ------- [0:0 1:0 32 0] [27 0] 0 0
r 5.168487156 _0_ RTR  --- 45 tcp 1040 [0 0 0 0] ------- [0:0 1:0 32 0] [27 0] 0 0
s 5.168487156 _0_ RTR  --- 45 tcp 1060 [0 0 0 0] ------- [0:0 1:0 32 1] [27 0] 0 0
s 5.168487156 _0_ AGT  --- 46 tcp 1040 [0 0 0 0] ------- [0:0 1:0 32 0] [28 0] 0 0
r 5.168487156 _0_ RTR  --- 46 tcp 1040 [0 0 0 0] ------- [0:0 1:0 32 0] [28 0] 0 0
s 5.168487156 _0_ RTR  --- 46 tcp 1060 [0 0 0 0] ------- [0:0 1:0 32 1] [28 0] 0 0
r 5.178591863 _1_ AGT  --- 25 tcp 1060 [13a 1 0 800] ------- [0:0 1:0 32 1] [14 0] 1 0
s 5.178591863 _1_ AGT  --- 47 ack 40 [0 0 0 0] ------- [1:0 0:0 32 0] [14 0] 0 0
r 5.178591863 _1_ RTR  --- 47 ack 40 [0 0 0 0] ------- [1:0 0:0 32 0] [14 0] 0 0
s 5.178591863 _1_ RTR  --- 47 ack 60 [0 0 0 0] ------- [1:0 0:0 32 0] [14 0] 0 0
r 5.180636570 _0_ AGT  --- 47 ack 60 [13a 0 1 800] ------- [1:0 0:0 32 0] [14 0] 1 0
s 5.180636570 _0_ AGT  --- 48 tcp 1040 [0 0 0 0] ------- [0:0 1:0 32 0] [29 0] 0 0
r 5.180636570 _0_ RTR  --- 48 tcp 1040 [0 0 0 0] ------- [0:0 1:0 32 0] [29 0] 0 0
s 5.180636570 _0_ RTR  --- 48 tcp 1060 [0 0 0 0] ------- [0:0 1:0 32 1] [29 0] 0 0
s 5.180636570 _0_ AGT  --- 49 tcp 1040 [0 0 0 0] ------- [0:0 1:0 32 0] [30 0] 0 0
r 5.180636570 _0_ RTR  --- 49 tcp 1040 [0 0 0 0] ------- [0:0 1:0 32 0] [30 0] 0 0
s 5.180636570 _0_ RTR  --- 49 tcp 1060 [0 0 0 0] ------- [0:0 1:0 32 1] [30 0] 0 0
r 5.190781277 _1_ AGT  --- 27 tcp 1060 [13a 1 0 800] ------- [0:0 1:0 32 1] [15 0] 1 0
s 5.190781277 _1_ AGT  --- 50 ack 40 [0 0 0 0] ------- [1:0 0:0 32 0] [15 0] 0 0
r 5.190781277 _1_ RTR  --- 50 ack 40 [0 0 0 0] ------- [1:0 0:0 32 0] [15 0] 0 0
s 5.190781277 _1_ RTR  --- 50 ack 60 [0 0 0 0] ------- [1:0 0:0 32 0] [15 0] 0 0
r 5.200766220 _1_ AGT  --- 28 tcp 1060 [13a 1 0 800] ------- [0:0 1:0 32 1] [16 0] 1 0
s 5.200766220 _1_ AGT  --- 51 ack 40 [0 0 0 0] ------- [1:0 0:0 32 0] [16 0] 0 0
r 5.200766220 _1_ RTR  --- 51 ack 40 [0 0 0 0] ------- [1:0 0:0 32 0] [16 0] 0 0
s 5.200766220 _1_ RTR  --- 51 ack 60 [0 0 0 0] ------- [1:0 0:0 32 0] [16 0] 0 0
r 5.210991163 _1_ AGT  --- 30 tcp 1060 [13a 1 0 800] ------- [0:0 1:0 32 1] [17 0] 1 0
s 5.210991163 _1_ AGT  --- 52 ack 40 [0 0 0 0] ------- [1:0 0:0 32 0] [17 0] 0 0
r 5.210991163 _1_ RTR  --- 52 ack 40 [0 0 0 0] ------- [1:0 0:0 32 0] [17 0] 0 0
s 5.210991163 _1_ RTR  --- 52 ack 60 [0 0 0 0] ------- [1:0 0:0 32 0] [17 0] 0 0
r 5.213035870 _0_ AGT  --- 50 ack 60 [13a 0 1 800] ------- [1:0 0:0 32 0] [15 0] 1 0
s 5.213035870 _0_ AGT  --- 53 tcp 1040 [0 0 0 0] ------- [0:0 1:0 32 0] [31 0] 0 0
r 5.213035870 _0_ RTR  --- 53 tcp 1040 [0 0 0 0] ------- [0:0 1:0 32 0] [31 0] 0 0
s 5.213035870 _0_ RTR  --- 53 tcp 1060 [0 0 0 0] ------- [0:0 1:0 32 1] [31 0] 0 0
s 5.213035870 _0_ AGT  --- 54 tcp 1040 [0 0 0 0] ------- [0:0 1:0 32 0] [32 0] 0 0
r 5.213035870 _0_ RTR  --- 54 tcp 1040 [0 0 0 0] ------- [0:0 1:0 32 0] [32 0] 0 0
s 5.213035870 _0_ RTR  --- 54 tcp 1060 [0 0 0 0] ------- [0:0 1:0 32 1] [32 0] 0 0
r 5.223260577 _1_ AGT  --- 31 tcp 1060 [13a 1 0 800] ------- [0:0 1:0 32 1] [18 0] 1 0
s 5.223260577 _1_ AGT  --- 55 ack 40 [0 0 0 0] ------- [1:0 0:0 32 0] [18 0] 0 0
r 5.223260577 _1_ RTR  --- 55 ack 40 [0 0 0 0] ------- [1:0 0:0 32 0] [18 0] 0 0
s 5.223260577 _1_ RTR  --- 55 ack 60 [0 0 0 0] ------- [1:0 0:0 32 0] [18 0] 0 0
r 5.233265520 _1_ AGT  --- 33 tcp 1060 [13a 1 0 800] ------- [0:0 1:0 32 1] [19 0] 1 0
s 5.233265520 _1_ AGT  --- 56 ack 40 [0 0 0 0] ------- [1:0 0:0 32 0] [19 0] 0 0
r 5.233265520 _1_ RTR  --- 56 ack 40 [0 0 0 0] ------- [1:0 0:0 32 0] [19 0] 0 0
s 5.233265520 _1_ RTR  --- 56 ack 60 [0 0 0 0] ------- [1:0 0:0 32 0] [19 0] 0 0
r 5.235290227 _0_ AGT  --- 51 ack 60 [13a 0 1 800] ------- [1:0 0:0 32 0] [16 0] 1 0
s 5.235290227 _0_ AGT  --- 57 tcp 1040 [0 0 0 0] ------- [0:0 1:0 32 0] [33 0] 0 0
r 5.235290227 _0_ RTR  --- 57 tcp 1040 [0 0 0 0] ------- [0:0 1:0 32 0] [33 0] 0 0
s 5.235290227 _0_ RTR  --- 57 tcp 1060 [0 0 0 0] ------- [0:0 1:0 32 1] [33 0] 0 0
s 5.235290227 _0_ AGT  --- 58 tcp 1040 [0 0 0 0] ------- [0:0 1:0 32 0] [34 0] 0 0
r 5.235290227 _0_ RTR  --- 58 tcp 1040 [0 0 0 0] ------- [0:0 1:0 32 0] [34 0] 0 0
s 5.235290227 _0_ RTR  --- 58 tcp 1060 [0 0 0 0] ------- [0:0 1:0 32 1] [34 0] 0 0
r 5.237515170 _0_ AGT  --- 52 ack 60 [13a 0 1 800] ------- [1:0 0:0 32 0] [17 0] 1 0
s 5.237515170 _0_ AGT  --- 59 tcp 1040 [0 0 0 0] ------- [0:0 1:0 32 0] [35 0] 0 0
r 5.237515170 _0_ RTR  --- 59 tcp 1040 [0 0 0 0] ------- [0:0 1:0 32 0] [35 0] 0 0
s 5.237515170 _0_ RTR  --- 59 tcp 1060 [0 0 0 0] ------- [0:0 1:0 32 1] [35 0] 0 0
s 5.237515170 _0_ AGT  --- 60 tcp 1040 [0 0 0 0] ------- [0:0 1:0 32 0] [36 0] 0 0
r 5.237515170 _0_ RTR  --- 60 tcp 1040 [0 0 0 0] ------- [0:0 1:0 32 0] [36 0] 0 0
s 5.237515170 _0_ RTR  --- 60 tcp 1060 [0 0 0 0] ------- [0:0 1:0 32 1] [36 0] 0 0
r 5.239620113 _0_ AGT  --- 55 ack 60 [13a 0 1 800] ------- [1:0 0:0 32 0] [18 0] 1 0
s 5.239620113 _0_ AGT  --- 61 tcp 1040 [0 0 0 0] ------- [0:0 1:0 32 0] [37 0] 0 0
r 5.239620113 _0_ RTR  --- 61 tcp 1040 [0 0 0 0] ------- [0:0 1:0 32 0] [37 0] 0 0
s 5.239620113 _0_ RTR  --- 61 tcp 1060 [0 0 0 0] ------- [0:0 1:0 32 1] [37 0] 0 0
s 5.239620113 _0_ AGT  --- 62 tcp 1040 [0 0 0 0] ------- [0:0 1:0 32 0] [38 0] 0 0
r 5.239620113 _0_ RTR  --- 62 tcp 1040 [0 0 0 0] ------- [0:0 1:0 32 0] [38 0] 0 0
s 5.239620113 _0_ RTR  --- 62 tcp 1060 [0 0 0 0] ------- [0:0 1:0 32 1] [38 0] 0 0
r 5.249684820 _1_ AGT  --- 34 tcp 1060 [13a 1 0 800] ------- [0:0 1:0 32 1] [20 0] 1 0
s 5.249684820 _1_ AGT  --- 63 ack 40 [0 0 0 0] ------- [1:0 0:0 32 0] [20 0] 0 0
r 5.249684820 _1_ RTR  --- 63 ack 40 [0 0 0 0] ------- [1:0 0:0 32 0] [20 0] 0 0
s 5.249684820 _1_ RTR  --- 63 ack 60 [0 0 0 0] ------- [1:0 0:0 32 0] [20 0] 0 0
r 5.259709763 _1_ AGT  --- 36 tcp 1060 [13a 1 0 800] ------- [0:0 1:0 32 1] [21 0] 1 0
s 5.259709763 _1_ AGT  --- 64 ack 40 [0 0 0 0] ------- [1:0 0:0 32 0] [21 0] 0 0
r 5.259709763 _1_ RTR  --- 64 ack 40 [0 0 0 0] ------- [1:0 0:0 32 0] [21 0] 0 0
s 5.259709763 _1_ RTR  --- 64 ack 60 [0 0 0 0] ------- [1:0 0:0 32 0] [21 0] 0 0
r 5.261874470 _0_ AGT  --- 56 ack 60 [13a 0 1 800] ------- [1:0 0:0 32 0] [19 0] 1 0
s 5.261874470 _0_ AGT  --- 65 tcp 1040 [0 0 0 0] ------- [0:0 1:0 32 0] [39 0] 0 0
r 5.261874470 _0_ RTR  --- 65 tcp 1040 [0 0 0 0] ------- [0:0 1:0 32 0] [39 0] 0 0
s 5.261874470 _0_ RTR  --- 65 tcp 1060 [0 0 0 0] ------- [0:0 1:0 32 1] [39 0] 0 0
r 5.263979413 _0_ AGT  --- 63 ack 60 [13a 0 1 800] ------- [1:0 0:0 32 0] [20 0] 1 0
s 5.263979413 _0_ AGT  --- 66 tcp 1040 [0 0 0 0] ------- [0:0 1:0 32 0] [40 0] 0 0
r 5.263979413 _0_ RTR  --- 66 tcp 1040 [0 0 0 0] ------- [0:0 1:0 32 0] [40 0] 0 0
s 5.263979413 _0_ RTR  --- 66 tcp 1060 [0 0 0 0] ------- [0:0 1:0 32 1] [40 0] 0 0
r 5.274124120 _1_ AGT  --- 37 tcp 1060 [13a 1 0 800] ------- [0:0 1:0 32 1] [22 0] 1 0
s 5.274124120 _1_ AGT  --- 67 ack 40 [0 0 0 0] ------- [1:0 0:0 32 0] [22 0] 0 0
r 5.274124120 _1_ RTR  --- 67 ack 40 [0 0 0 0] ------- [1:0 0:0 32 0] [22 0] 0 0
s 5.274124120 _1_ RTR  --- 67 ack 60 [0 0 0 0] ------- [1:0 0:0 32 0] [22 0] 0 0
r 5.276148827 _0_ AGT  --- 64 ack 60 [13a 0 1 800] ------- [1:0 0:0 32 0] [21 0] 1 0
s 5.276148827 _0_ AGT  --- 68 tcp 1040 [0 0 0 0] ------- [0:0 1:0 32 0] [41 0] 0 0
r 5.276148827 _0_ RTR  --- 68 tcp 1040 [0 0 0 0] ------- [0:0 1:0 32 0] [41 0] 0 0
s 5.276148827 _0_ RTR  --- 68 tcp 1060 [0 0 0 0] ------- [0:0 1:0 32 1] [41 0] 0 0
r 5.286193534 _1_ AGT  --- 40 tcp 1060 [13a 1 0 800] ------- [0:0 1:0 32 1] [23 0] 1 0
s 5.286193534 _1_ AGT  --- 69 ack 40 [0 0 0 0] ------- [1:0 0:0 32 0] [23 0] 0 0
r 5.286193534 _1_ RTR  --- 69 ack 40 [0 0 0 0] ------- [1:0 0:0 32 0] [23 0] 0 0
s 5.286193534 _1_ RTR  --- 69 ack 60 [0 0 0 0] ------- [1:0 0:0 32 0] [23 0] 0 0
r 5.288198241 _0_ AGT  --- 67 ack 60 [13a 0 1 800] ------- [1:0 0:0 32 0] [22 0] 1 0
s 5.288198241 _0_ AGT  --- 70 tcp 1040 [0 0 0 0] ------- [0:0 1:0 32 0] [42 0] 0 0
r 5.288198241 _0_ RTR  --- 70 tcp 1040 [0 0 0 0] ------- [0:0 1:0 32 0] [42 0] 0 0
s 5.288198241 _0_ RTR  --- 70 tcp 1060 [0 0 0 0] ------- [0:0 1:0 32 1] [42 0] 0 0
r 5.290383184 _0_ AGT  --- 69 ack 60 [13a 0 1 800] ------- [1:0 0:0 32 0] [23 0] 1 0
s 5.290383184 _0_ AGT  --- 71 tcp 1040 [0 0 0 0] ------- [0:0 1:0 32 0] [43 0] 0 0
r 5.290383184 _0_ RTR  --- 71 tcp 1040 [0 0 0 0] ------- [0:0 1:0 32 0] [43 0] 0 0
s 5.290383184 _0_ RTR  --- 71 tcp 1060 [0 0 0 0] ------- [0:0 1:0 32 1] [43 0] 0 0
r 5.300407891 _1_ AGT  --- 41 tcp 1060 [13a 1 0 800] ------- [0:0 1:0 32 1] [24 0] 1 0
s 5.300407891 _1_ AGT  --- 72 ack 40 [0 0 0 0] ------- [1:0 0:0 32 0] [24 0] 0 0
r 5.300407891 _1_ RTR  --- 72 ack 40 [0 0 0 0] ------- [1:0 0:0 32 0] [24 0] 0 0
s 5.300407891 _1_ RTR  --- 72 ack 60 [0 0 0 0] ------- [1:0 0:0 32 0] [24 0] 0 0
r 5.302412598 _0_ AGT  --- 72 ack 60 [13a 0 1 800] ------- [1:0 0:0 32 0] [24 0] 1 0
s 5.302412598 _0_ AGT  --- 73 tcp 1040 [0 0 0 0] ------- [0:0 1:0 32 0] [44 0] 0 0
r 5.302412598 _0_ RTR  --- 73 tcp 1040 [0 0 0 0] ------- [0:0 1:0 32 0] [44 0] 0 0
s 5.302412598 _0_ RTR  --- 73 tcp 1060 [0 0 0 0] ------- [0:0 1:0 32 1] [44 0] 0 0
r 5.312717305 _1_ AGT  --- 42 tcp 1060 [13a 1 0 800] ------- [0:0 1:0 32 1] [25 0] 1 0
s 5.312717305 _1_ AGT  --- 74 ack 40 [0 0 0 0] ------- [1:0 0:0 32 0] [25 0] 0 0
r 5.312717305 _1_ RTR  --- 74 ack 40 [0 0 0 0] ------- [1:0 0:0 32 0] [25 0] 0 0
s 5.312717305 _1_ RTR  --- 74 ack 60 [0 0 0 0] ------- [1:0 0:0 32 0] [25 0] 0 0
r 5.322822248 _1_ AGT  --- 43 tcp 1060 [13a 1 0 800] ------- [0:0 1:0 32 1] [26 0] 1 0
s 5.322822248 _1_ AGT  --- 75 ack 40 [0 0 0 0] ------- [1:0 0:0 32 0] [26 0] 0 0
r 5.322822248 _1_ RTR  --- 75 ack 40 [0 0 0 0] ------- [1:0 0:0 32 0] [26 0] 0 0
s 5.322822248 _1_ RTR  --- 75 ack 60 [0 0 0 0] ------- [1:0 0:0 32 0] [26 0] 0 0
r 5.332867191 _1_ AGT  --- 45 tcp 1060 [13a 1 0 800] ------- [0:0 1:0 32 1] [27 0] 1 0
s 5.332867191 _1_ AGT  --- 76 ack 40 [0 0 0 0] ------- [1:0 0:0 32 0] [27 0] 0 0
r 5.332867191 _1_ RTR  --- 76 ack 40 [0 0 0 0] ------- [1:0 0:0 32 0] [27 0] 0 0
s 5.332867191 _1_ RTR  --- 76 ack 60 [0 0 0 0] ------- [1:0 0:0 32 0] [27 0] 0 0
r 5.334951898 _0_ AGT  --- 74 ack 60 [13a 0 1 800] ------- [1:0 0:0 32 0] [25 0] 1 0
s 5.334951898 _0_ AGT  --- 77 tcp 1040 [0 0 0 0] ------- [0:0 1:0 32 0] [45 0] 0 0
r 5.334951898 _0_ RTR  --- 77 tcp 1040 [0 0 0 0] ------- [0:0 1:0 32 0] [45 0] 0 0
s 5.334951898 _0_ RTR  --- 77 tcp 1060 [0 0 0 0] ------- [0:0 1:0 32 1] [45 0] 0 0
r 5.337056841 _0_ AGT  --- 75 ack 60 [13a 0 1 800] ------- [1:0 0:0 32 0] [26 0] 1 0
s 5.337056841 _0_ AGT  --- 78 tcp 1040 [0 0 0 0] ------- [0:0 1:0 32 0] [46 0] 0 0
r 5.337056841 _0_ RTR  --- 78 tcp 1040 [0 0 0 0] ------- [0:0 1:0 32 0] [46 0] 0 0
s 5.337056841 _0_ RTR  --- 78 tcp 1060 [0 0 0 0] ------- [0:0 1:0 32 1] [46 0] 0 0
r 5.347421548 _1_ AGT  --- 46 tcp 1060 [13a 1 0 800] ------- [0:0 1:0 32 1] [28 0] 1 0
s 5.347421548 _1_ AGT  --- 79 ack 40 [0 0 0 0] ------- [1:0 0:0 32 0] [28 0] 0 0
r 5.347421548 _1_ RTR  --- 79 ack 40 [0 0 0 0] ------- [1:0 0:0 32 0] [28 0] 0 0
s 5.347421548 _1_ RTR  --- 79 ack 60 [0 0 0 0] ------- [1:0 0:0 32 0] [28 0] 0 0
r 5.349646255 _0_ AGT  --- 76 ack 60 [13a 0 1 800] ------- [1:0 0:0 32 0] [27 0] 1 0
s 5.349646255 _0_ AGT  --- 80 tcp 1040 [0 0 0 0] ------- [0:0 1:0 32 0] [47 0] 0 0
r 5.349646255 _0_ RTR  --- 80 tcp 1040 [0 0 0 0] ------- [0:0 1:0 32 0] [47 0] 0 0
s 5.349646255 _0_ RTR  --- 80 tcp 1060 [0 0 0 0] ------- [0:0 1:0 32 1] [47 0] 0 0
r 5.359850962 _1_ AGT  --- 48 tcp 1060 [13a 1 0 800] ------- [0:0 1:0 32 1] [29 0] 1 0
s 5.359850962 _1_ AGT  --- 81 ack 40 [0 0 0 0] ------- [1:0 0:0 32 0] [29 0] 0 0
r 5.359850962 _1_ RTR  --- 81 ack 40 [0 0 0 0] ------- [1:0 0:0 32 0] [29 0] 0 0
s 5.359850962 _1_ RTR  --- 81 ack 60 [0 0 0 0] ------- [1:0 0:0 32 0] [29 0] 0 0
r 5.370135905 _1_ AGT  --- 49 tcp 1060 [13a 1 0 800] ------- [0:0 1:0 32 1] [30 0] 1 0
s 5.370135905 _1_ AGT  --- 82 ack 40 [0 0 0 0] ------- [1:0 0:0 32 0] [30 0] 0 0
r 5.370135905 _1_ RTR  --- 82 ack 40 [0 0 0 0] ------- [1:0 0:0 32 0] [30 0] 0 0
s 5.370135905 _1_ RTR  --- 82 ack 60 [0 0 0 0] ------- [1:0 0:0 32 0] [30 0] 0 0
r 5.372140612 _0_ AGT  --- 79 ack 60 [13a 0 1 800] ------- [1:0 0:0 32 0] [28 0] 1 0
s 5.372140612 _0_ AGT  --- 83 tcp 1040 [0 0 0 0] ------- [0:0 1:0 32 0] [48 0] 0 0
r 5.372140612 _0_ RTR  --- 83 tcp 1040 [0 0 0 0] ------- [0:0 1:0 32 0] [48 0] 0 0
s 5.372140612 _0_ RTR  --- 83 tcp 1060 [0 0 0 0] ------- [0:0 1:0 32 1] [48 0] 0 0
r 5.382405319 _1_ AGT  --- 53 tcp 1060 [13a 1 0 800] ------- [0:0 1:0 32 1] [31 0] 1 0
s 5.382405319 _1_ AGT  --- 84 ack 40 [0 0 0 0] ------- [1:0 0:0 32 0] [31 0] 0 0
r 5.382405319 _1_ RTR  --- 84 ack 40 [0 0 0 0] ------- [1:0 0:0 32 0] [31 0] 0 0
s 5.382405319 _1_ RTR  --- 84 ack 60 [0 0 0 0] ------- [1:0 0:0 32 0] [31 0] 0 0
r 5.384410026 _0_ AGT  --- 81 ack 60 [13a 0 1 800] ------- [1:0 0:0 32 0] [29 0] 1 0
s 5.384410026 _0_ AGT  --- 85 tcp 1040 [0 0 0 0] ------- [0:0 1:0 32 0] [49 0] 0 0
r 5.384410026 _0_ RTR  --- 85 tcp 1040 [0 0 0 0] ------- [0:0 1:0 32 0] [49 0] 0 0
s 5.384410026 _0_ RTR  --- 85 tcp 1060 [0 0 0 0] ------- [0:0 1:0 32 1] [49 0] 0 0
r 5.386434969 _0_ AGT  --- 82 ack 60 [13a 0 1 800] ------- [1:0 0:0 32 0] [30 0] 1 0
s 5.386434969 _0_ AGT  --- 86 tcp 1040 [0 0 0 0] ------- [0:0 1:0 32 0] [50 0] 0 0
r 5.386434969 _0_ RTR  --- 86 tcp 1040 [0 0 0 0] ------- [0:0 1:0 32 0] [50 0] 0 0
s 5.386434969 _0_ RTR  --- 86 tcp 1060 [0 0 0 0] ------- [0:0 1:0 32 1] [50 0] 0 0
r 5.396699676 _1_ AGT  --- 54 tcp 1060 [13a 1 0 800] ------- [0:0 1:0 32 1] [32 0] 1 0
s 5.396699676 _1_ AGT  --- 87 ack 40 [0 0 0 0] ------- [1:0 0:0 32 0] [32 0] 0 0
r 5.396699676 _1_ RTR  --- 87 ack 40 [0 0 0 0] ------- [1:0 0:0 32 0] [32 0] 0 0
s 5.396699676 _1_ RTR  --- 87 ack 60 [0 0 0 0] ------- [1:0 0:0 32 0] [32 0] 0 0
r 5.406904619 _1_ AGT  --- 57 tcp 1060 [13a 1 0 800] ------- [0:0 1:0 32 1] [33 0] 1 0
s 5.406904619 _1_ AGT  --- 88 ack 40 [0 0 0 0] ------- [1:0 0:0 32 0] [33 0] 0 0
r 5.406904619 _1_ RTR  --- 88 ack 40 [0 0 0 0] ------- [1:0 0:0 32 0] [33 0] 0 0
s 5.406904619 _1_ RTR  --- 88 ack 60 [0 0 0 0] ------- [1:0 0:0 32 0] [33 0] 0 0
r 5.408969326 _0_ AGT  --- 84 ack 60 [13a 0 1 800] ------- [1:0 0:0 32 0] [31 0] 1 0
s 5.408969326 _0_ AGT  --- 89 tcp 1040 [0 0 0 0] ------- [0:0 1:0 32 0] [51 0] 0 0
r 5.408969326 _0_ RTR  --- 89 tcp 1040 [0 0 0 0] ------- [0:0 1:0 32 0] [51 0] 0 0
s 5.408969326 _0_ RTR  --- 89 tcp 1060 [0 0 0 0] ------- [0:0 1:0 32 1] [51 0] 0 0
r 5.419054033 _1_ AGT  --- 58 tcp 1060 [13a 1 0 800] ------- [0:0 1:0 32 1] [34 0] 1 0
s 5.419054033 _1_ AGT  --- 90 ack 40 [0 0 0 0] ------- [1:0 0:0 32 0] [34 0] 0 0
r 5.419054033 _1_ RTR  --- 90 ack 40 [0 0 0 0] ------- [1:0 0:0 32 0] [34 0] 0 0
s 5.419054033 _1_ RTR  --- 90 ack 60 [0 0 0 0] ------- [1:0 0:0 32 0] [34 0] 0 0
r 5.421118740 _0_ AGT  --- 87 ack 60 [13a 0 1 800] ------- [1:0 0:0 32 0] [32 0] 1 0
s 5.421118740 _0_ AGT  --- 91 tcp 1040 [0 0 0 0] ------- [0:0 1:0 32 0] [52 0] 0 0
r 5.421118740 _0_ RTR  --- 91 tcp 1040 [0 0 0 0] ------- [0:0 1:0 32 0] [52 0] 0 0
s 5.421118740 _0_ RTR  --- 91 tcp 1060 [0 0 0 0] ------- [0:0 1:0 32 1] [52 0] 0 0
r 5.431463447 _1_ AGT  --- 59 tcp 1060 [13a 1 0 800] ------- [0:0 1:0 32 1] [35 0] 1 0
s 5.431463447 _1_ AGT  --- 92 ack 40 [0 0 0 0] ------- [1:0 0:0 32 0] [35 0] 0 0
r 5.431463447 _1_ RTR  --- 92 ack 40 [0 0 0 0] ------- [1:0 0:0 32 0] [35 0] 0 0
s 5.431463447 _1_ RTR  --- 92 ack 60 [0 0 0 0] ------- [1:0 0:0 32 0] [35 0] 0 0
r 5.433508154 _0_ AGT  --- 88 ack 60 [13a 0 1 800] ------- [1:0 0:0 32 0] [33 0] 1 0
s 5.433508154 _0_ AGT  --- 93 tcp 1040 [0 0 0 0] ------- [0:0 1:0 32 0] [53 0] 0 0
r 5.433508154 _0_ RTR  --- 93 tcp 1040 [0 0 0 0] ------- [0:0 1:0 32 0] [53 0] 0 0
s 5.433508154 _0_ RTR  --- 93 tcp 1060 [0 0 0 0] ------- [0:0 1:0 32 1] [53 0] 0 0
r 5.443552861 _1_ AGT  --- 60 tcp 1060 [13a 1 0 800] ------- [0:0 1:0 32 1] [36 0] 1 0
s 5.443552861 _1_ AGT  --- 94 ack 40 [0 0 0 0] ------- [1:0 0:0 32 0] [36 0] 0 0
r 5.443552861 _1_ RTR  --- 94 ack 40 [0 0 0 0] ------- [1:0 0:0 32 0] [36 0] 0 0
s 5.443552861 _1_ RTR  --- 94 ack 60 [0 0 0 0] ------- [1:0 0:0 32 0] [36 0] 0 0
r 5.445637569 _0_ AGT  --- 90 ack 60 [13a 0 1 800] ------- [1:0 0:0 32 0] [34 0] 1 0
s 5.445637569 _0_ AGT  --- 95 tcp 1040 [0 0 0 0] ------- [0:0 1:0 32 0] [54 0] 0 0
r 5.445637569 _0_ RTR  --- 95 tcp 1040 [0 0 0 0] ------- [0:0 1:0 32 0] [54 0] 0 0
s 5.445637569 _0_ RTR  --- 95 tcp 1060 [0 0 0 0] ------- [0:0 1:0 32 1] [54 0] 0 0
r 5.447622511 _0_ AGT  --- 92 ack 60 [13a 0 1 800] ------- [1:0 0:0 32 0] [35 0] 1 0
s 5.447622511 _0_ AGT  --- 96 tcp 1040 [0 0 0 0] ------- [0:0 1:0 32 0] [55 0] 0 0
r 5.447622511 _0_ RTR  --- 96 tcp 1040 [0 0 0 0] ------- [0:0 1:0 32 0] [55 0] 0 0
s 5.447622511 _0_ RTR  --- 96 tcp 1060 [0 0 0 0] ------- [0:0 1:0 32 1] [55 0] 0 0
r 5.458653690 _1_ AGT  --- 61 tcp 1060 [13a 1 0 800] ------- [0:0 1:0 32 1] [37 0] 1 0