+ 0.01 0 2 cbr 210 ------- 0 0.0 3.0 0 0
- 0.01 0 2 cbr 210 ------- 0 0.0 3.0 0 0
+ 0.01 1 2 cbr 500 ------- 0 1.0 3.0 0 1
- 0.01 1 2 cbr 500 ------- 0 1.0 3.0 0 1
+ 0.01375 0 2 cbr 210 ------- 0 0.0 3.0 1 2
- 0.01375 0 2 cbr 210 ------- 0 0.0 3.0 1 2
+ 0.015 1 2 cbr 500 ------- 0 1.0 3.0 1 3
- 0.015 1 2 cbr 500 ------- 0 1.0 3.0 1 3
+ 0.0175 0 2 cbr 210 ------- 0 0.0 3.0 2 4
- 0.0175 0 2 cbr 210 ------- 0 0.0 3.0 2 4
+ 0.02 1 2 cbr 500 ------- 0 1.0 3.0 2 5
- 0.02 1 2 cbr 500 ------- 0 1.0 3.0 2 5
+ 0.02125 0 2 cbr 210 ------- 0 0.0 3.0 3 6
- 0.02125 0 2 cbr 210 ------- 0 0.0 3.0 3 6
+ 0.025 1 2 cbr 500 ------- 0 1.0 3.0 3 7
- 0.025 1 2 cbr 500 ------- 0 1.0 3.0 3 7
+ 0.025 0 2 cbr 210 ------- 0 0.0 3.0 4 8
- 0.025 0 2 cbr 210 ------- 0 0.0 3.0 4 8
+ 0.02875 0 2 cbr 210 ------- 0 0.0 3.0 5 9
- 0.02875 0 2 cbr 210 ------- 0 0.0 3.0 5 9
+ 0.03 1 2 cbr 500 ------- 0 1.0 3.0 4 10
- 0.03 1 2 cbr 500 ------- 0 1.0 3.0 4 10
+ 0.0325 0 2 cbr 210 ------- 0 0.0 3.0 6 11
- 0.0325 0 2 cbr 210 ------- 0 0.0 3.0 6 11
+ 0.035 1 2 cbr 500 ------- 0 1.0 3.0 5 12
- 0.035 1 2 cbr 500 ------- 0 1.0 3.0 5 12
+ 0.03625 0 2 cbr 210 ------- 0 0.0 3.0 7 13
- 0.03625 0 2 cbr 210 ------- 0 0.0 3.0 7 13
+ 0.04 1 2 cbr 500 ------- 0 1.0 3.0 6 14
- 0.04 1 2 cbr 500 ------- 0 1.0 3.0 6 14
+ 0.04 0 2 cbr 210 ------- 0 0.0 3.0 8 15
- 0.04 0 2 cbr 210 ------- 0 0.0 3.0 8 15
+ 0.04375 0 2 cbr 210 ------- 0 0.0 3.0 9 16
- 0.04375 0 2 cbr 210 ------- 0 0.0 3.0 9 16
+ 0.045 1 2 cbr 500 ------- 0 1.0 3.0 7 17
- 0.045 1 2 cbr 500 ------- 0 1.0 3.0 7 17
+ 0.0475 0 2 cbr 210 ------- 0 0.0 3.0 10 18
- 0.0475 0 2 cbr 210 ------- 0 0.0 3.0 10 18
+ 0.05 1 2 cbr 500 ------- 0 1.0 3.0 8 19
- 0.05 1 2 cbr 500 ------- 0 1.0 3.0 8 19
+ 0.05125 0 2 cbr 210 ------- 0 0.0 3.0 11 20
- 0.05125 0 2 cbr 210 ------- 0 0.0 3.0 11 20
+ 0.055 1 2 cbr 500 ------- 0 1.0 3.0 9 21
- 0.055 1 2 cbr 500 ------- 0 1.0 3.0 9 21
+ 0.055 0 2 cbr 210 ------- 0 0.0 3.0 12 22
- 0.055 0 2 cbr 210 ------- 0 0.0 3.0 12 22
+ 0.05875 0 2 cbr 210 ------- 0 0.0 3.0 13 23
- 0.05875 0 2 cbr 210 ------- 0 0.0 3.0 13 23
+ 0.06 1 2 cbr 500 ------- 0 1.0 3.0 10 24
- 0.06 1 2 cbr 500 ------- 0 1.0 3.0 10 24
+ 0.0625 0 2 cbr 210 ------- 0 0.0 3.0 14 25
- 0.0625 0 2 cbr 210 ------- 0 0.0 3.0 14 25
+ 0.065 1 2 cbr 500 ------- 0 1.0 3.0 11 26
- 0.065 1 2 cbr 500 ------- 0 1.0 3.0 11 26
+ 0.06625 0 2 cbr 210 ------- 0 0.0 3.0 15 27
- 0.06625 0 2 cbr 210 ------- 0 0.0 3.0 15 27
+ 0.07 1 2 cbr 500 ------- 0 1.0 3.0 12 28
- 0.07 1 2 cbr 500 ------- 0 1.0 3.0 12 28
+ 0.07 0 2 cbr 210 ------- 0 0.0 3.0 16 29
- 0.07 0 2 cbr 210 ------- 0 0.0 3.0 16 29
+ 0.07375 0 2 cbr 210 ------- 0 0.0 3.0 17 30
- 0.07375 0 2 cbr 210 ------- 0 0.0 3.0 17 30
+ 0.075 1 2 cbr 500 ------- 0 1.0 3.0 13 31
- 0.075 1 2 cbr 500 ------- 0 1.0 3.0 13 31
+ 0.0775 0 2 cbr 210 ------- 0 0.0 3.0 18 32
- 0.0775 0 2 cbr 210 ------- 0 0.0 3.0 18 32
+ 0.08 1 2 cbr 500 ------- 0 1.0 3.0 14 33
- 0.08 1 2 cbr 500 ------- 0 1.0 3.0 14 33
+ 0.08125 0 2 cbr 210 ------- 0 0.0 3.0 19 34
- 0.08125 0 2 cbr 210 ------- 0 0.0 3.0 19 34
+ 0.085 1 2 cbr 500 ------- 0 1.0 3.0 15 35
- 0.085 1 2 cbr 500 ------- 0 1.0 3.0 15 35
+ 0.085 0 2 cbr 210 ------- 0 0.0 3.0 20 36
- 0.085 0 2 cbr 210 ------- 0 0.0 3.0 20 36
+ 0.08875 0 2 cbr 210 ------- 0 0.0 3.0 21 37
- 0.08875 0 2 cbr 210 ------- 0 0.0 3.0 21 37
+ 0.09 1 2 cbr 500 ------- 0 1.0 3.0 16 38
- 0.09 1 2 cbr 500 ------- 0 1.0 3.0 16 38
+ 0.0925 0 2 cbr 210 ------- 0 0.0 3.0 22 39
- 0.0925 0 2 cbr 210 ------- 0 0.0 3.0 22 39
+ 0.095 1 2 cbr 500 ------- 0 1.0 3.0 17 40
- 0.095 1 2 cbr 500 ------- 0 1.0 3.0 17 40
+ 0.09625 0 2 cbr 210 ------- 0 0.0 3.0 23 41
- 0.09625 0 2 cbr 210 ------- 0 0.0 3.0 23 41
+ 0.1 1 2 cbr 500 ------- 0 1.0 3.0 18 42
- 0.1 1 2 cbr 500 ------- 0 1.0 3.0 18 42
+ 0.1 0 2 cbr 210 ------- 0 0.0 3.0 24 43
- 0.1 0 2 cbr 210 ------- 0 0.0 3.0 24 43
+ 0.10375 0 2 cbr 210 ------- 0 0.0 3.0 25 44
- 0.10375 0 2 cbr 210 ------- 0 0.0 3.0 25 44
+ 0.105 1 2 cbr 500 ------- 0 1.0 3.0 19 45
- 0.105 1 2 cbr 500 ------- 0 1.0 3.0 19 45
+ 0.1075 0 2 cbr 210 ------- 0 0.0 3.0 26 46
- 0.1075 0 2 cbr 210 ------- 0 0.0 3.0 26 46
+ 0.11 1 2 cbr 500 ------- 0 1.0 3.0 20 47
- 0.11 1 2 cbr 500 ------- 0 1.0 3.0 20 47
+ 0.11125 0 2 cbr 210 ------- 0 0.0 3.0 27 48
- 0.11125 0 2 cbr 210 ------- 0 0.0 3.0 27 48
+ 0.115 1 2 cbr 500 ------- 0 1.0 3.0 21 49
- 0.115 1 2 cbr 500 ------- 0 1.0 3.0 21 49
+ 0.115 0 2 cbr 210 ------- 0 0.0 3.0 28 50
- 0.115 0 2 cbr 210 ------- 0 0.0 3.0 28 50
+ 0.11875 0 2 cbr 210 ------- 0 0.0 3.0 29 51
- 0.11875 0 2 cbr 210 ------- 0 0.0 3.0 29 51
+ 0.12 1 2 cbr 500 ------- 0 1.0 3.0 22 52
- 0.12 1 2 cbr 500 ------- 0 1.0 3.0 22 52
+ 0.1225 0 2 cbr 210 ------- 0 0.0 3.0 30 53
- 0.1225 0 2 cbr 210 ------- 0 0.0 3.0 30 53
+ 0.125 1 2 cbr 500 ------- 0 1.0 3.0 23 54
- 0.125 1 2 cbr 500 ------- 0 1.0 3.0 23 54
+ 0.12625 0 2 cbr 210 ------- 0 0.0 3.0 31 55
- 0.12625 0 2 cbr 210 ------- 0 0.0 3.0 31 55
+ 0.13 1 2 cbr 500 ------- 0 1.0 3.0 24 56
- 0.13 1 2 cbr 500 ------- 0 1.0 3.0 24 56
+ 0.13 0 2 cbr 210 ------- 0 0.0 3.0 32 57
- 0.13 0 2 cbr 210 ------- 0 0.0 3.0 32 57
+ 0.13375 0 2 cbr 210 ------- 0 0.0 3.0 33 58
- 0.13375 0 2 cbr 210 ------- 0 0.0 3.0 33 58
+ 0.135 1 2 cbr 500 ------- 0 1.0 3.0 25 59
- 0.135 1 2 cbr 500 ------- 0 1.0 3.0 25 59
+ 0.1375 0 2 cbr 210 ------- 0 0.0 3.0 34 60
- 0.1375 0 2 cbr 210 ------- 0 0.0 3.0 34 60
+ 0.14 1 2 cbr 500 ------- 0 1.0 3.0 26 61
- 0.14 1 2 cbr 500 ------- 0 1.0 3.0 26 61
+ 0.14125 0 2 cbr 210 ------- 0 0.0 3.0 35 62
- 0.14125 0 2 cbr 210 ------- 0 0.0 3.0 35 62
+ 0.145 1 2 cbr 500 ------- 0 1.0 3.0 27 63
- 0.145 1 2 cbr 500 ------- 0 1.0 3.0 27 63
+ 0.145 0 2 cbr 210 ------- 0 0.0 3.0 36 64
- 0.145 0 2 cbr 210 ------- 0 0.0 3.0 36 64
+ 0.14875 0 2 cbr 210 ------- 0 0.0 3.0 37 65
- 0.14875 0 2 cbr 210 ------- 0 0.0 3.0 37 65
+ 0.15 1 2 cbr 500 ------- 0 1.0 3.0 28 66
- 0.15 1 2 cbr 500 ------- 0 1.0 3.0 28 66
+ 0.1525 0 2 cbr 210 ------- 0 0.0 3.0 38 67
- 0.1525 0 2 cbr 210 ------- 0 0.0 3.0 38 67
+ 0.155 1 2 cbr 500 ------- 0 1.0 3.0 29 68
- 0.155 1 2 cbr 500 ------- 0 1.0 3.0 29 68
+ 0.15625 0 2 cbr 210 ------- 0 0.0 3.0 39 69
- 0.15625 0 2 cbr 210 ------- 0 0.0 3.0 39 69
+ 0.16 1 2 cbr 500 ------- 0 1.0 3.0 30 70
- 0.16 1 2 cbr 500 ------- 0 1.0 3.0 30 70
+ 0.16 0 2 cbr 210 ------- 0 0.0 3.0 40 71
- 0.16 0 2 cbr 210 ------- 0 0.0 3.0 40 71
+ 0.16375 0 2 cbr 210 ------- 0 0.0 3.0 41 72
- 0.16375 0 2 cbr 210 ------- 0 0.0 3.0 41 72
+ 0.165 1 2 cbr 500 ------- 0 1.0 3.0 31 73
- 0.165 1 2 cbr 500 ------- 0 1.0 3.0 31 73
+ 0.1675 0 2 cbr 210 ------- 0 0.0 3.0 42 74
- 0.1675 0 2 cbr 210 ------- 0 0.0 3.0 42 74
+ 0.17 1 2 cbr 500 ------- 0 1.0 3.0 32 75
- 0.17 1 2 cbr 500 ------- 0 1.0 3.0 32 75
+ 0.17125 0 2 cbr 210 ------- 0 0.0 3.0 43 76
- 0.17125 0 2 cbr 210 ------- 0 0.0 3.0 43 76
+ 0.175 1 2 cbr 500 ------- 0 1.0 3.0 33 77
- 0.175 1 2 cbr 500 ------- 0 1.0 3.0 33 77
+ 0.175 0 2 cbr 210 ------- 0 0.0 3.0 44 78
- 0.175 0 2 cbr 210 ------- 0 0.0 3.0 44 78
+ 0.17875 0 2 cbr 210 ------- 0 0.0 3.0 45 79
- 0.17875 0 2 cbr 210 ------- 0 0.0 3.0 45 79
+ 0.18 1 2 cbr 500 ------- 0 1.0 3.0 34 80
- 0.18 1 2 cbr 500 ------- 0 1.0 3.0 34 80
+ 0.1825 0 2 cbr 210 ------- 0 0.0 3.0 46 81
- 0.1825 0 2 cbr 210 ------- 0 0.0 3.0 46 81
+ 0.185 1 2 cbr 500 ------- 0 1.0 3.0 35 82
- 0.185 1 2 cbr 500 ------- 0 1.0 3.0 35 82
+ 0.18625 0 2 cbr 210 ------- 0 0.0 3.0 47 83
- 0.18625 0 2 cbr 210 ------- 0 0.0 3.0 47 83
+ 0.19 1 2 cbr 500 ------- 0 1.0 3.0 36 84
- 0.19 1 2 cbr 500 ------- 0 1.0 3.0 36 84
+ 0.19 0 2 cbr 210 ------- 0 0.0 3.0 48 85
- 0.19 0 2 cbr 210 ------- 0 0.0 3.0 48 85
+ 0.19375 0 2 cbr 210 ------- 0 0.0 3.0 49 86
- 0.19375 0 2 cbr 210 ------- 0 0.0 3.0 49 86
+ 0.195 1 2 cbr 500 ------- 0 1.0 3.0 37 87
- 0.195 1 2 cbr 500 ------- 0 1.0 3.0 37 87
+ 0.1975 0 2 cbr 210 ------- 0 0.0 3.0 50 88
- 0.1975 0 2 cbr 210 ------- 0 0.0 3.0 50 88
+ 0.2 1 2 cbr 500 ------- 0 1.0 3.0 38 89
- 0.2 1 2 cbr 500 ------- 0 1.0 3.0 38 89
+ 0.20125 0 2 cbr 210 ------- 0 0.0 3.0 51 90
- 0.20125 0 2 cbr 210 ------- 0 0.0 3.0 51 90
+ 0.205 1 2 cbr 500 ------- 0 1.0 3.0 39 91
- 0.205 1 2 cbr 500 ------- 0 1.0 3.0 39 91
+ 0.205 0 2 cbr 210 ------- 0 0.0 3.0 52 92
- 0.205 0 2 cbr 210 ------- 0 0.0 3.0 52 92
+ 0.20875 0 2 cbr 210 ------- 0 0.0 3.0 53 93
- 0.20875 0 2 cbr 210 ------- 0 0.0 3.0 53 93
+ 0.21 1 2 cbr 500 ------- 0 1.0 3.0 40 94
- 0.21 1 2 cbr 500 ------- 0 1.0 3.0 40 94
+ 0.2125 0 2 cbr 210 ------- 0 0.0 3.0 54 95
- 0.2125 0 2 cbr 210 ------- 0 0.0 3.0 54 95
+ 0.215 1 2 cbr 500 ------- 0 1.0 3.0 41 96
- 0.215 1 2 cbr 500 ------- 0 1.0 3.0 41 96
+ 0.21625 0 2 cbr 210 ------- 0 0.0 3.0 55 97
- 0.21625 0 2 cbr 210 ------- 0 0.0 3.0 55 97
+ 0.22 1 2 cbr 500 ------- 0 1.0 3.0 42 98
- 0.22 1 2 cbr 500 ------- 0 1.0 3.0 42 98
+ 0.22 0 2 cbr 210 ------- 0 0.0 3.0 56 99
- 0.22 0 2 cbr 210 ------- 0 0.0 3.0 56 99
+ 0.22375 0 2 cbr 210 ------- 0 0.0 3.0 57 100
- 0.22375 0 2 cbr 210 ------- 0 0.0 3.0 57 100
+ 0.225 1 2 cbr 500 ------- 0 1.0 3.0 43 101
- 0.225 1 2 cbr 500 ------- 0 1.0 3.0 43 101
+ 0.2275 0 2 cbr 210 ------- 0 0.0 3.0 58 102
- 0.2275 0 2 cbr 210 ------- 0 0.0 3.0 58 102
+ 0.23 1 2 cbr 500 ------- 0 1.0 3.0 44 103
- 0.23 1 2 cbr 500 ------- 0 1.0 3.0 44 103
+ 0.23125 0 2 cbr 210 ------- 0 0.0 3.0 59 104
- 0.23125 0 2 cbr 210 ------- 0 0.0 3.0 59 104
+ 0.235 1 2 cbr 500 ------- 0 1.0 3.0 45 105
- 0.235 1 2 cbr 500 ------- 0 1.0 3.0 45 105
+ 0.235 0 2 cbr 210 ------- 0 0.0 3.0 60 106
- 0.235 0 2 cbr 210 ------- 0 0.0 3.0 60 106
+ 0.23875 0 2 cbr 210 ------- 0 0.0 3.0 61 107
- 0.23875 0 2 cbr 210 ------- 0 0.0 3.0 61 107
+ 0.24 1 2 cbr 500 ------- 0 1.0 3.0 46 108
- 0.24 1 2 cbr 500 ------- 0 1.0 3.0 46 108
+ 0.2425 0 2 cbr 210 ------- 0 0.0 3.0 62 109
- 0.2425 0 2 cbr 210 ------- 0 0.0 3.0 62 109
+ 0.245 1 2 cbr 500 ------- 0 1.0 3.0 47 110
- 0.245 1 2 cbr 500 ------- 0 1.0 3.0 47 110
+ 0.24625 0 2 cbr 210 ------- 0 0.0 3.0 63 111
- 0.24625 0 2 cbr 210 ------- 0 0.0 3.0 63 111
+ 0.25 1 2 cbr 500 ------- 0 1.0 3.0 48 112
- 0.25 1 2 cbr 500 ------- 0 1.0 3.0 48 112
+ 0.25 0 2 cbr 210 ------- 0 0.0 3.0 64 113
- 0.25 0 2 cbr 210 ------- 0 0.0 3.0 64 113
+ 0.25375 0 2 cbr 210 ------- 0 0.0 3.0 65 114
- 0.25375 0 2 cbr 210 ------- 0 0.0 3.0 65 114
+ 0.255 1 2 cbr 500 ------- 0 1.0 3.0 49 115
- 0.255 1 2 cbr 500 ------- 0 1.0 3.0 49 115
+ 0.2575 0 2 cbr 210 ------- 0 0.0 3.0 66 116
- 0.2575 0 2 cbr 210 ------- 0 0.0 3.0 66 116
+ 0.26 1 2 cbr 500 ------- 0 1.0 3.0 50 117
- 0.26 1 2 cbr 500 ------- 0 1.0 3.0 50 117
+ 0.26125 0 2 cbr 210 ------- 0 0.0 3.0 67 118
- 0.26125 0 2 cbr 210 ------- 0 0.0 3.0 67 118
+ 0.265 0 2 cbr 210 ------- 0 0.0 3.0 68 119
- 0.265 0 2 cbr 210 ------- 0 0.0 3.0 68 119
+ 0.265 1 2 cbr 500 ------- 0 1.0 3.0 51 120
- 0.265 1 2 cbr 500 ------- 0 1.0 3.0 51 120
+ 0.26875 0 2 cbr 210 ------- 0 0.0 3.0 69 121
- 0.26875 0 2 cbr 210 ------- 0 0.0 3.0 69 121
+ 0.27 1 2 cbr 500 ------- 0 1.0 3.0 52 122
- 0.27 1 2 cbr 500 ------- 0 1.0 3.0 52 122
+ 0.2725 0 2 cbr 210 ------- 0 0.0 3.0 70 123
- 0.2725 0 2 cbr 210 ------- 0 0.0 3.0 70 123
+ 0.275 1 2 cbr 500 ------- 0 1.0 3.0 53 124
- 0.275 1 2 cbr 500 ------- 0 1.0 3.0 53 124
+ 0.27625 0 2 cbr 210 ------- 0 0.0 3.0 71 125
- 0.27625 0 2 cbr 210 ------- 0 0.0 3.0 71 125
+ 0.28 0 2 cbr 210 ------- 0 0.0 3.0 72 126
- 0.28 0 2 cbr 210 ------- 0 0.0 3.0 72 126
+ 0.28 1 2 cbr 500 ------- 0 1.0 3.0 54 127
- 0.28 1 2 cbr 500 ------- 0 1.0 3.0 54 127
+ 0.28375 0 2 cbr 210 ------- 0 0.0 3.0 73 128
- 0.28375 0 2 cbr 210 ------- 0 0.0 3.0 73 128
+ 0.285 1 2 cbr 500 ------- 0 1.0 3.0 55 129
- 0.285 1 2 cbr 500 ------- 0 1.0 3.0 55 129
+ 0.2875 0 2 cbr 210 ------- 0 0.0 3.0 74 130
- 0.2875 0 2 cbr 210 ------- 0 0.0 3.0 74 130
+ 0.29 1 2 cbr 500 ------- 0 1.0 3.0 56 131
- 0.29 1 2 cbr 500 ------- 0 1.0 3.0 56 131
+ 0.29125 0 2 cbr 210 ------- 0 0.0 3.0 75 132
- 0.29125 0 2 cbr 210 ------- 0 0.0 3.0 75 132
+ 0.295 0 2 cbr 210 ------- 0 0.0 3.0 76 133
- 0.295 0 2 cbr 210 ------- 0 0.0 3.0 76 133
+ 0.295 1 2 cbr 500 ------- 0 1.0 3.0 57 134
- 0.295 1 2 cbr 500 ------- 0 1.0 3.0 57 134
+ 0.29875 0 2 cbr 210 ------- 0 0.0 3.0 77 135
- 0.29875 0 2 cbr 210 ------- 0 0.0 3.0 77 135
+ 0.3 1 2 cbr 500 ------- 0 1.0 3.0 58 136
- 0.3 1 2 cbr 500 ------- 0 1.0 3.0 58 136
+ 0.3025 0 2 cbr 210 ------- 0 0.0 3.0 78 137
- 0.3025 0 2 cbr 210 ------- 0 0.0 3.0 78 137
+ 0.305 1 2 cbr 500 ------- 0 1.0 3.0 59 138
- 0.305 1 2 cbr 500 ------- 0 1.0 3.0 59 138
+ 0.30625 0 2 cbr 210 ------- 0 0.0 3.0 79 139
- 0.30625 0 2 cbr 210 ------- 0 0.0 3.0 79 139
+ 0.31 0 2 cbr 210 ------- 0 0.0 3.0 80 140
- 0.31 0 2 cbr 210 ------- 0 0.0 3.0 80 140
+ 0.31 1 2 cbr 500 ------- 0 1.0 3.0 60 141
- 0.31 1 2 cbr 500 ------- 0 1.0 3.0 60 141
r 0.310336 0 2 cbr 210 ------- 0 0.0 3.0 0 0
+ 0.310336 2 3 cbr 210 ------- 0 0.0 3.0 0 0
- 0.310336 2 3 cbr 210 ------- 0 0.0 3.0 0 0
r 0.3108 1 2 cbr 500 ------- 0 1.0 3.0 0 1
+ 0.3108 2 3 cbr 500 ------- 0 1.0 3.0 0 1
- 0.312016 2 3 cbr 500 ------- 0 1.0 3.0 0 1
+ 0.31375 0 2 cbr 210 ------- 0 0.0 3.0 81 142
- 0.31375 0 2 cbr 210 ------- 0 0.0 3.0 81 142
r 0.314086 0 2 cbr 210 ------- 0 0.0 3.0 1 2
+ 0.314086 2 3 cbr 210 ------- 0 0.0 3.0 1 2
+ 0.315 1 2 cbr 500 ------- 0 1.0 3.0 61 143
- 0.315 1 2 cbr 500 ------- 0 1.0 3.0 61 143
r 0.3158 1 2 cbr 500 ------- 0 1.0 3.0 1 3
+ 0.3158 2 3 cbr 500 ------- 0 1.0 3.0 1 3
- 0.316016 2 3 cbr 210 ------- 0 0.0 3.0 1 2
+ 0.3175 0 2 cbr 210 ------- 0 0.0 3.0 82 144
- 0.3175 0 2 cbr 210 ------- 0 0.0 3.0 82 144
- 0.317696 2 3 cbr 500 ------- 0 1.0 3.0 1 3
r 0.317836 0 2 cbr 210 ------- 0 0.0 3.0 2 4
+ 0.317836 2 3 cbr 210 ------- 0 0.0 3.0 2 4
+ 0.32 1 2 cbr 500 ------- 0 1.0 3.0 62 145
- 0.32 1 2 cbr 500 ------- 0 1.0 3.0 62 145
r 0.3208 1 2 cbr 500 ------- 0 1.0 3.0 2 5
+ 0.3208 2 3 cbr 500 ------- 0 1.0 3.0 2 5
+ 0.32125 0 2 cbr 210 ------- 0 0.0 3.0 83 146
- 0.32125 0 2 cbr 210 ------- 0 0.0 3.0 83 146
r 0.321586 0 2 cbr 210 ------- 0 0.0 3.0 3 6
+ 0.321586 2 3 cbr 210 ------- 0 0.0 3.0 3 6
- 0.321696 2 3 cbr 210 ------- 0 0.0 3.0 2 4
- 0.323376 2 3 cbr 500 ------- 0 1.0 3.0 2 5
+ 0.325 0 2 cbr 210 ------- 0 0.0 3.0 84 147
- 0.325 0 2 cbr 210 ------- 0 0.0 3.0 84 147
+ 0.325 1 2 cbr 500 ------- 0 1.0 3.0 63 148
- 0.325 1 2 cbr 500 ------- 0 1.0 3.0 63 148
r 0.325336 0 2 cbr 210 ------- 0 0.0 3.0 4 8
+ 0.325336 2 3 cbr 210 ------- 0 0.0 3.0 4 8
r 0.3258 1 2 cbr 500 ------- 0 1.0 3.0 3 7
+ 0.3258 2 3 cbr 500 ------- 0 1.0 3.0 3 7
- 0.327376 2 3 cbr 210 ------- 0 0.0 3.0 3 6
+ 0.32875 0 2 cbr 210 ------- 0 0.0 3.0 85 149
- 0.32875 0 2 cbr 210 ------- 0 0.0 3.0 85 149
- 0.329056 2 3 cbr 210 ------- 0 0.0 3.0 4 8
r 0.329086 0 2 cbr 210 ------- 0 0.0 3.0 5 9
+ 0.329086 2 3 cbr 210 ------- 0 0.0 3.0 5 9
+ 0.33 1 2 cbr 500 ------- 0 1.0 3.0 64 150
- 0.33 1 2 cbr 500 ------- 0 1.0 3.0 64 150
- 0.330736 2 3 cbr 500 ------- 0 1.0 3.0 3 7
r 0.3308 1 2 cbr 500 ------- 0 1.0 3.0 4 10
+ 0.3308 2 3 cbr 500 ------- 0 1.0 3.0 4 10
+ 0.3325 0 2 cbr 210 ------- 0 0.0 3.0 86 151
- 0.3325 0 2 cbr 210 ------- 0 0.0 3.0 86 151
r 0.332836 0 2 cbr 210 ------- 0 0.0 3.0 6 11
+ 0.332836 2 3 cbr 210 ------- 0 0.0 3.0 6 11
- 0.334736 2 3 cbr 210 ------- 0 0.0 3.0 5 9
+ 0.335 1 2 cbr 500 ------- 0 1.0 3.0 65 152
- 0.335 1 2 cbr 500 ------- 0 1.0 3.0 65 152
r 0.3358 1 2 cbr 500 ------- 0 1.0 3.0 5 12
+ 0.3358 2 3 cbr 500 ------- 0 1.0 3.0 5 12
+ 0.33625 0 2 cbr 210 ------- 0 0.0 3.0 87 153
- 0.33625 0 2 cbr 210 ------- 0 0.0 3.0 87 153
- 0.336416 2 3 cbr 500 ------- 0 1.0 3.0 4 10
r 0.336586 0 2 cbr 210 ------- 0 0.0 3.0 7 13
+ 0.336586 2 3 cbr 210 ------- 0 0.0 3.0 7 13
+ 0.34 0 2 cbr 210 ------- 0 0.0 3.0 88 154
- 0.34 0 2 cbr 210 ------- 0 0.0 3.0 88 154
+ 0.34 1 2 cbr 500 ------- 0 1.0 3.0 66 155
- 0.34 1 2 cbr 500 ------- 0 1.0 3.0 66 155
r 0.340336 0 2 cbr 210 ------- 0 0.0 3.0 8 15
+ 0.340336 2 3 cbr 210 ------- 0 0.0 3.0 8 15
- 0.340416 2 3 cbr 210 ------- 0 0.0 3.0 6 11
r 0.3408 1 2 cbr 500 ------- 0 1.0 3.0 6 14
+ 0.3408 2 3 cbr 500 ------- 0 1.0 3.0 6 14
- 0.342096 2 3 cbr 500 ------- 0 1.0 3.0 5 12
+ 0.34375 0 2 cbr 210 ------- 0 0.0 3.0 89 156
- 0.34375 0 2 cbr 210 ------- 0 0.0 3.0 89 156
r 0.344086 0 2 cbr 210 ------- 0 0.0 3.0 9 16
+ 0.344086 2 3 cbr 210 ------- 0 0.0 3.0 9 16
+ 0.345 1 2 cbr 500 ------- 0 1.0 3.0 67 157
- 0.345 1 2 cbr 500 ------- 0 1.0 3.0 67 157
r 0.3458 1 2 cbr 500 ------- 0 1.0 3.0 7 17
+ 0.3458 2 3 cbr 500 ------- 0 1.0 3.0 7 17
- 0.346096 2 3 cbr 210 ------- 0 0.0 3.0 7 13
+ 0.3475 0 2 cbr 210 ------- 0 0.0 3.0 90 158
- 0.3475 0 2 cbr 210 ------- 0 0.0 3.0 90 158
- 0.347776 2 3 cbr 210 ------- 0 0.0 3.0 8 15
r 0.347836 0 2 cbr 210 ------- 0 0.0 3.0 10 18
+ 0.347836 2 3 cbr 210 ------- 0 0.0 3.0 10 18
- 0.349456 2 3 cbr 500 ------- 0 1.0 3.0 6 14
+ 0.35 1 2 cbr 500 ------- 0 1.0 3.0 68 159
- 0.35 1 2 cbr 500 ------- 0 1.0 3.0 68 159
r 0.3508 1 2 cbr 500 ------- 0 1.0 3.0 8 19
+ 0.3508 2 3 cbr 500 ------- 0 1.0 3.0 8 19
+ 0.35125 0 2 cbr 210 ------- 0 0.0 3.0 91 160
- 0.35125 0 2 cbr 210 ------- 0 0.0 3.0 91 160
r 0.351586 0 2 cbr 210 ------- 0 0.0 3.0 11 20
+ 0.351586 2 3 cbr 210 ------- 0 0.0 3.0 11 20
- 0.353456 2 3 cbr 210 ------- 0 0.0 3.0 9 16
+ 0.355 0 2 cbr 210 ------- 0 0.0 3.0 92 161
- 0.355 0 2 cbr 210 ------- 0 0.0 3.0 92 161
+ 0.355 1 2 cbr 500 ------- 0 1.0 3.0 69 162
- 0.355 1 2 cbr 500 ------- 0 1.0 3.0 69 162
- 0.355136 2 3 cbr 500 ------- 0 1.0 3.0 7 17
r 0.355336 0 2 cbr 210 ------- 0 0.0 3.0 12 22
+ 0.355336 2 3 cbr 210 ------- 0 0.0 3.0 12 22
r 0.3558 1 2 cbr 500 ------- 0 1.0 3.0 9 21
+ 0.3558 2 3 cbr 500 ------- 0 1.0 3.0 9 21
+ 0.35875 0 2 cbr 210 ------- 0 0.0 3.0 93 163
- 0.35875 0 2 cbr 210 ------- 0 0.0 3.0 93 163
r 0.359086 0 2 cbr 210 ------- 0 0.0 3.0 13 23
+ 0.359086 2 3 cbr 210 ------- 0 0.0 3.0 13 23
- 0.359136 2 3 cbr 210 ------- 0 0.0 3.0 10 18
+ 0.36 1 2 cbr 500 ------- 0 1.0 3.0 70 164
- 0.36 1 2 cbr 500 ------- 0 1.0 3.0 70 164
r 0.3608 1 2 cbr 500 ------- 0 1.0 3.0 10 24
+ 0.3608 2 3 cbr 500 ------- 0 1.0 3.0 10 24
- 0.360816 2 3 cbr 500 ------- 0 1.0 3.0 8 19
+ 0.3625 0 2 cbr 210 ------- 0 0.0 3.0 94 165
- 0.3625 0 2 cbr 210 ------- 0 0.0 3.0 94 165
r 0.362836 0 2 cbr 210 ------- 0 0.0 3.0 14 25
+ 0.362836 2 3 cbr 210 ------- 0 0.0 3.0 14 25
- 0.364816 2 3 cbr 210 ------- 0 0.0 3.0 11 20
+ 0.365 1 2 cbr 500 ------- 0 1.0 3.0 71 166
- 0.365 1 2 cbr 500 ------- 0 1.0 3.0 71 166
r 0.3658 1 2 cbr 500 ------- 0 1.0 3.0 11 26
+ 0.3658 2 3 cbr 500 ------- 0 1.0 3.0 11 26
+ 0.36625 0 2 cbr 210 ------- 0 0.0 3.0 95 167
- 0.36625 0 2 cbr 210 ------- 0 0.0 3.0 95 167
- 0.366496 2 3 cbr 210 ------- 0 0.0 3.0 12 22
r 0.366586 0 2 cbr 210 ------- 0 0.0 3.0 15 27
+ 0.366586 2 3 cbr 210 ------- 0 0.0 3.0 15 27
- 0.368176 2 3 cbr 500 ------- 0 1.0 3.0 9 21
+ 0.37 0 2 cbr 210 ------- 0 0.0 3.0 96 168
- 0.37 0 2 cbr 210 ------- 0 0.0 3.0 96 168
+ 0.37 1 2 cbr 500 ------- 0 1.0 3.0 72 169
- 0.37 1 2 cbr 500 ------- 0 1.0 3.0 72 169
r 0.370336 0 2 cbr 210 ------- 0 0.0 3.0 16 29
+ 0.370336 2 3 cbr 210 ------- 0 0.0 3.0 16 29
r 0.3708 1 2 cbr 500 ------- 0 1.0 3.0 12 28
+ 0.3708 2 3 cbr 500 ------- 0 1.0 3.0 12 28
- 0.372176 2 3 cbr 210 ------- 0 0.0 3.0 13 23
+ 0.37375 0 2 cbr 210 ------- 0 0.0 3.0 97 170
- 0.37375 0 2 cbr 210 ------- 0 0.0 3.0 97 170
- 0.373856 2 3 cbr 500 ------- 0 1.0 3.0 10 24
r 0.374086 0 2 cbr 210 ------- 0 0.0 3.0 17 30
+ 0.374086 2 3 cbr 210 ------- 0 0.0 3.0 17 30
+ 0.375 1 2 cbr 500 ------- 0 1.0 3.0 73 171
- 0.375 1 2 cbr 500 ------- 0 1.0 3.0 73 171
r 0.3758 1 2 cbr 500 ------- 0 1.0 3.0 13 31
+ 0.3758 2 3 cbr 500 ------- 0 1.0 3.0 13 31
+ 0.3775 0 2 cbr 210 ------- 0 0.0 3.0 98 172
- 0.3775 0 2 cbr 210 ------- 0 0.0 3.0 98 172
r 0.377836 0 2 cbr 210 ------- 0 0.0 3.0 18 32
+ 0.377836 2 3 cbr 210 ------- 0 0.0 3.0 18 32
- 0.377856 2 3 cbr 210 ------- 0 0.0 3.0 14 25
- 0.379536 2 3 cbr 500 ------- 0 1.0 3.0 11 26
+ 0.38 1 2 cbr 500 ------- 0 1.0 3.0 74 173
- 0.38 1 2 cbr 500 ------- 0 1.0 3.0 74 173
r 0.3808 1 2 cbr 500 ------- 0 1.0 3.0 14 33
+ 0.3808 2 3 cbr 500 ------- 0 1.0 3.0 14 33
+ 0.38125 0 2 cbr 210 ------- 0 0.0 3.0 99 174
- 0.38125 0 2 cbr 210 ------- 0 0.0 3.0 99 174
r 0.381586 0 2 cbr 210 ------- 0 0.0 3.0 19 34
+ 0.381586 2 3 cbr 210 ------- 0 0.0 3.0 19 34
- 0.383536 2 3 cbr 210 ------- 0 0.0 3.0 15 27
+ 0.385 0 2 cbr 210 ------- 0 0.0 3.0 100 175
- 0.385 0 2 cbr 210 ------- 0 0.0 3.0 100 175
+ 0.385 1 2 cbr 500 ------- 0 1.0 3.0 75 176
- 0.385 1 2 cbr 500 ------- 0 1.0 3.0 75 176
- 0.385216 2 3 cbr 210 ------- 0 0.0 3.0 16 29
r 0.385336 0 2 cbr 210 ------- 0 0.0 3.0 20 36
+ 0.385336 2 3 cbr 210 ------- 0 0.0 3.0 20 36
r 0.3858 1 2 cbr 500 ------- 0 1.0 3.0 15 35
+ 0.3858 2 3 cbr 500 ------- 0 1.0 3.0 15 35
- 0.386896 2 3 cbr 500 ------- 0 1.0 3.0 12 28
+ 0.38875 0 2 cbr 210 ------- 0 0.0 3.0 101 177
- 0.38875 0 2 cbr 210 ------- 0 0.0 3.0 101 177
r 0.389086 0 2 cbr 210 ------- 0 0.0 3.0 21 37
+ 0.389086 2 3 cbr 210 ------- 0 0.0 3.0 21 37
+ 0.39 1 2 cbr 500 ------- 0 1.0 3.0 76 178
- 0.39 1 2 cbr 500 ------- 0 1.0 3.0 76 178
r 0.3908 1 2 cbr 500 ------- 0 1.0 3.0 16 38
+ 0.3908 2 3 cbr 500 ------- 0 1.0 3.0 16 38
- 0.390896 2 3 cbr 210 ------- 0 0.0 3.0 17 30
+ 0.3925 0 2 cbr 210 ------- 0 0.0 3.0 102 179
- 0.3925 0 2 cbr 210 ------- 0 0.0 3.0 102 179
- 0.392576 2 3 cbr 500 ------- 0 1.0 3.0 13 31
r 0.392836 0 2 cbr 210 ------- 0 0.0 3.0 22 39
+ 0.392836 2 3 cbr 210 ------- 0 0.0 3.0 22 39
+ 0.395 1 2 cbr 500 ------- 0 1.0 3.0 77 180
- 0.395 1 2 cbr 500 ------- 0 1.0 3.0 77 180
r 0.3958 1 2 cbr 500 ------- 0 1.0 3.0 17 40
+ 0.3958 2 3 cbr 500 ------- 0 1.0 3.0 17 40
+ 0.39625 0 2 cbr 210 ------- 0 0.0 3.0 103 181
- 0.39625 0 2 cbr 210 ------- 0 0.0 3.0 103 181
- 0.396576 2 3 cbr 210 ------- 0 0.0 3.0 18 32
r 0.396586 0 2 cbr 210 ------- 0 0.0 3.0 23 41
+ 0.396586 2 3 cbr 210 ------- 0 0.0 3.0 23 41
- 0.398256 2 3 cbr 500 ------- 0 1.0 3.0 14 33
+ 0.4 0 2 cbr 210 ------- 0 0.0 3.0 104 182
- 0.4 0 2 cbr 210 ------- 0 0.0 3.0 104 182
+ 0.4 1 2 cbr 500 ------- 0 1.0 3.0 78 183
- 0.4 1 2 cbr 500 ------- 0 1.0 3.0 78 183
r 0.400336 0 2 cbr 210 ------- 0 0.0 3.0 24 43
+ 0.400336 2 3 cbr 210 ------- 0 0.0 3.0 24 43
r 0.4008 1 2 cbr 500 ------- 0 1.0 3.0 18 42
+ 0.4008 2 3 cbr 500 ------- 0 1.0 3.0 18 42
- 0.402256 2 3 cbr 210 ------- 0 0.0 3.0 19 34
+ 0.40375 0 2 cbr 210 ------- 0 0.0 3.0 105 184
- 0.40375 0 2 cbr 210 ------- 0 0.0 3.0 105 184
- 0.403936 2 3 cbr 210 ------- 0 0.0 3.0 20 36
r 0.404086 0 2 cbr 210 ------- 0 0.0 3.0 25 44
+ 0.404086 2 3 cbr 210 ------- 0 0.0 3.0 25 44
+ 0.405 1 2 cbr 500 ------- 0 1.0 3.0 79 185
- 0.405 1 2 cbr 500 ------- 0 1.0 3.0 79 185
- 0.405616 2 3 cbr 500 ------- 0 1.0 3.0 15 35
r 0.4058 1 2 cbr 500 ------- 0 1.0 3.0 19 45
+ 0.4058 2 3 cbr 500 ------- 0 1.0 3.0 19 45
+ 0.4075 0 2 cbr 210 ------- 0 0.0 3.0 106 186
- 0.4075 0 2 cbr 210 ------- 0 0.0 3.0 106 186
r 0.407836 0 2 cbr 210 ------- 0 0.0 3.0 26 46
+ 0.407836 2 3 cbr 210 ------- 0 0.0 3.0 26 46
- 0.409616 2 3 cbr 210 ------- 0 0.0 3.0 21 37
+ 0.41 1 2 cbr 500 ------- 0 1.0 3.0 80 187
- 0.41 1 2 cbr 500 ------- 0 1.0 3.0 80 187
r 0.4108 1 2 cbr 500 ------- 0 1.0 3.0 20 47
+ 0.4108 2 3 cbr 500 ------- 0 1.0 3.0 20 47
+ 0.41125 0 2 cbr 210 ------- 0 0.0 3.0 107 188
- 0.41125 0 2 cbr 210 ------- 0 0.0 3.0 107 188
- 0.411296 2 3 cbr 500 ------- 0 1.0 3.0 16 38
r 0.411586 0 2 cbr 210 ------- 0 0.0 3.0 27 48
+ 0.411586 2 3 cbr 210 ------- 0 0.0 3.0 27 48
+ 0.415 0 2 cbr 210 ------- 0 0.0 3.0 108 189
- 0.415 0 2 cbr 210 ------- 0 0.0 3.0 108 189
+ 0.415 1 2 cbr 500 ------- 0 1.0 3.0 81 190
- 0.415 1 2 cbr 500 ------- 0 1.0 3.0 81 190
- 0.415296 2 3 cbr 210 ------- 0 0.0 3.0 22 39
r 0.415336 0 2 cbr 210 ------- 0 0.0 3.0 28 50
+ 0.415336 2 3 cbr 210 ------- 0 0.0 3.0 28 50
r 0.4158 1 2 cbr 500 ------- 0 1.0 3.0 21 49
+ 0.4158 2 3 cbr 500 ------- 0 1.0 3.0 21 49
- 0.416976 2 3 cbr 500 ------- 0 1.0 3.0 17 40
+ 0.41875 0 2 cbr 210 ------- 0 0.0 3.0 109 191
- 0.41875 0 2 cbr 210 ------- 0 0.0 3.0 109 191
r 0.419086 0 2 cbr 210 ------- 0 0.0 3.0 29 51
+ 0.419086 2 3 cbr 210 ------- 0 0.0 3.0 29 51
+ 0.42 1 2 cbr 500 ------- 0 1.0 3.0 82 192
- 0.42 1 2 cbr 500 ------- 0 1.0 3.0 82 192
r 0.4208 1 2 cbr 500 ------- 0 1.0 3.0 22 52
+ 0.4208 2 3 cbr 500 ------- 0 1.0 3.0 22 52
- 0.420976 2 3 cbr 210 ------- 0 0.0 3.0 23 41
+ 0.4225 0 2 cbr 210 ------- 0 0.0 3.0 110 193
- 0.4225 0 2 cbr 210 ------- 0 0.0 3.0 110 193
- 0.422656 2 3 cbr 210 ------- 0 0.0 3.0 24 43
r 0.422836 0 2 cbr 210 ------- 0 0.0 3.0 30 53
+ 0.422836 2 3 cbr 210 ------- 0 0.0 3.0 30 53
- 0.424336 2 3 cbr 500 ------- 0 1.0 3.0 18 42
+ 0.425 1 2 cbr 500 ------- 0 1.0 3.0 83 194
- 0.425 1 2 cbr 500 ------- 0 1.0 3.0 83 194
r 0.4258 1 2 cbr 500 ------- 0 1.0 3.0 23 54
+ 0.4258 2 3 cbr 500 ------- 0 1.0 3.0 23 54
+ 0.42625 0 2 cbr 210 ------- 0 0.0 3.0 111 195
- 0.42625 0 2 cbr 210 ------- 0 0.0 3.0 111 195
r 0.426586 0 2 cbr 210 ------- 0 0.0 3.0 31 55
+ 0.426586 2 3 cbr 210 ------- 0 0.0 3.0 31 55
- 0.428336 2 3 cbr 210 ------- 0 0.0 3.0 25 44
+ 0.43 0 2 cbr 210 ------- 0 0.0 3.0 112 196
- 0.43 0 2 cbr 210 ------- 0 0.0 3.0 112 196
+ 0.43 1 2 cbr 500 ------- 0 1.0 3.0 84 197
- 0.43 1 2 cbr 500 ------- 0 1.0 3.0 84 197
- 0.430016 2 3 cbr 500 ------- 0 1.0 3.0 19 45
r 0.430336 0 2 cbr 210 ------- 0 0.0 3.0 32 57
+ 0.430336 2 3 cbr 210 ------- 0 0.0 3.0 32 57
r 0.4308 1 2 cbr 500 ------- 0 1.0 3.0 24 56
+ 0.4308 2 3 cbr 500 ------- 0 1.0 3.0 24 56
+ 0.43375 0 2 cbr 210 ------- 0 0.0 3.0 113 198
- 0.43375 0 2 cbr 210 ------- 0 0.0 3.0 113 198
- 0.434016 2 3 cbr 210 ------- 0 0.0 3.0 26 46
r 0.434086 0 2 cbr 210 ------- 0 0.0 3.0 33 58
+ 0.434086 2 3 cbr 210 ------- 0 0.0 3.0 33 58
+ 0.435 1 2 cbr 500 ------- 0 1.0 3.0 85 199
- 0.435 1 2 cbr 500 ------- 0 1.0 3.0 85 199
- 0.435696 2 3 cbr 500 ------- 0 1.0 3.0 20 47
r 0.4358 1 2 cbr 500 ------- 0 1.0 3.0 25 59
+ 0.4358 2 3 cbr 500 ------- 0 1.0 3.0 25 59
+ 0.4375 0 2 cbr 210 ------- 0 0.0 3.0 114 200
- 0.4375 0 2 cbr 210 ------- 0 0.0 3.0 114 200
r 0.437836 0 2 cbr 210 ------- 0 0.0 3.0 34 60
+ 0.437836 2 3 cbr 210 ------- 0 0.0 3.0 34 60
- 0.439696 2 3 cbr 210 ------- 0 0.0 3.0 27 48
+ 0.44 1 2 cbr 500 ------- 0 1.0 3.0 86 201
- 0.44 1 2 cbr 500 ------- 0 1.0 3.0 86 201
r 0.4408 1 2 cbr 500 ------- 0 1.0 3.0 26 61
+ 0.4408 2 3 cbr 500 ------- 0 1.0 3.0 26 61
+ 0.44125 0 2 cbr 210 ------- 0 0.0 3.0 115 202
- 0.44125 0 2 cbr 210 ------- 0 0.0 3.0 115 202
- 0.441376 2 3 cbr 210 ------- 0 0.0 3.0 28 50
r 0.441586 0 2 cbr 210 ------- 0 0.0 3.0 35 62
+ 0.441586 2 3 cbr 210 ------- 0 0.0 3.0 35 62
- 0.443056 2 3 cbr 500 ------- 0 1.0 3.0 21 49
+ 0.445 0 2 cbr 210 ------- 0 0.0 3.0 116 203
- 0.445 0 2 cbr 210 ------- 0 0.0 3.0 116 203
+ 0.445 1 2 cbr 500 ------- 0 1.0 3.0 87 204
- 0.445 1 2 cbr 500 ------- 0 1.0 3.0 87 204
r 0.445336 0 2 cbr 210 ------- 0 0.0 3.0 36 64
+ 0.445336 2 3 cbr 210 ------- 0 0.0 3.0 36 64
r 0.4458 1 2 cbr 500 ------- 0 1.0 3.0 27 63
+ 0.4458 2 3 cbr 500 ------- 0 1.0 3.0 27 63
- 0.447056 2 3 cbr 210 ------- 0 0.0 3.0 29 51
- 0.448736 2 3 cbr 500 ------- 0 1.0 3.0 22 52
+ 0.44875 0 2 cbr 210 ------- 0 0.0 3.0 117 205
- 0.44875 0 2 cbr 210 ------- 0 0.0 3.0 117 205
r 0.449086 0 2 cbr 210 ------- 0 0.0 3.0 37 65
+ 0.449086 2 3 cbr 210 ------- 0 0.0 3.0 37 65
+ 0.45 1 2 cbr 500 ------- 0 1.0 3.0 88 206
- 0.45 1 2 cbr 500 ------- 0 1.0 3.0 88 206
r 0.4508 1 2 cbr 500 ------- 0 1.0 3.0 28 66
+ 0.4508 2 3 cbr 500 ------- 0 1.0 3.0 28 66
+ 0.4525 0 2 cbr 210 ------- 0 0.0 3.0 118 207
- 0.4525 0 2 cbr 210 ------- 0 0.0 3.0 118 207
- 0.452736 2 3 cbr 210 ------- 0 0.0 3.0 30 53
r 0.452836 0 2 cbr 210 ------- 0 0.0 3.0 38 67
+ 0.452836 2 3 cbr 210 ------- 0 0.0 3.0 38 67
- 0.454416 2 3 cbr 500 ------- 0 1.0 3.0 23 54
+ 0.455 1 2 cbr 500 ------- 0 1.0 3.0 89 208
- 0.455 1 2 cbr 500 ------- 0 1.0 3.0 89 208
r 0.4558 1 2 cbr 500 ------- 0 1.0 3.0 29 68
+ 0.4558 2 3 cbr 500 ------- 0 1.0 3.0 29 68
+ 0.45625 0 2 cbr 210 ------- 0 0.0 3.0 119 209
- 0.45625 0 2 cbr 210 ------- 0 0.0 3.0 119 209
r 0.456586 0 2 cbr 210 ------- 0 0.0 3.0 39 69
+ 0.456586 2 3 cbr 210 ------- 0 0.0 3.0 39 69
- 0.458416 2 3 cbr 210 ------- 0 0.0 3.0 31 55
+ 0.46 0 2 cbr 210 ------- 0 0.0 3.0 120 210
- 0.46 0 2 cbr 210 ------- 0 0.0 3.0 120 210
+ 0.46 1 2 cbr 500 ------- 0 1.0 3.0 90 211
- 0.46 1 2 cbr 500 ------- 0 1.0 3.0 90 211
- 0.460096 2 3 cbr 210 ------- 0 0.0 3.0 32 57
r 0.460336 0 2 cbr 210 ------- 0 0.0 3.0 40 71
+ 0.460336 2 3 cbr 210 ------- 0 0.0 3.0 40 71
r 0.4608 1 2 cbr 500 ------- 0 1.0 3.0 30 70
+ 0.4608 2 3 cbr 500 ------- 0 1.0 3.0 30 70
- 0.461776 2 3 cbr 500 ------- 0 1.0 3.0 24 56
+ 0.46375 0 2 cbr 210 ------- 0 0.0 3.0 121 212
- 0.46375 0 2 cbr 210 ------- 0 0.0 3.0 121 212
r 0.464086 0 2 cbr 210 ------- 0 0.0 3.0 41 72
+ 0.464086 2 3 cbr 210 ------- 0 0.0 3.0 41 72
+ 0.465 1 2 cbr 500 ------- 0 1.0 3.0 91 213
- 0.465 1 2 cbr 500 ------- 0 1.0 3.0 91 213
- 0.465776 2 3 cbr 210 ------- 0 0.0 3.0 33 58
r 0.4658 1 2 cbr 500 ------- 0 1.0 3.0 31 73
+ 0.4658 2 3 cbr 500 ------- 0 1.0 3.0 31 73
- 0.467456 2 3 cbr 500 ------- 0 1.0 3.0 25 59
+ 0.4675 0 2 cbr 210 ------- 0 0.0 3.0 122 214
- 0.4675 0 2 cbr 210 ------- 0 0.0 3.0 122 214
r 0.467836 0 2 cbr 210 ------- 0 0.0 3.0 42 74
+ 0.467836 2 3 cbr 210 ------- 0 0.0 3.0 42 74
+ 0.47 1 2 cbr 500 ------- 0 1.0 3.0 92 215
- 0.47 1 2 cbr 500 ------- 0 1.0 3.0 92 215
r 0.4708 1 2 cbr 500 ------- 0 1.0 3.0 32 75
+ 0.4708 2 3 cbr 500 ------- 0 1.0 3.0 32 75
+ 0.47125 0 2 cbr 210 ------- 0 0.0 3.0 123 216
- 0.47125 0 2 cbr 210 ------- 0 0.0 3.0 123 216
- 0.471456 2 3 cbr 210 ------- 0 0.0 3.0 34 60
r 0.471586 0 2 cbr 210 ------- 0 0.0 3.0 43 76
+ 0.471586 2 3 cbr 210 ------- 0 0.0 3.0 43 76
- 0.473136 2 3 cbr 500 ------- 0 1.0 3.0 26 61
+ 0.475 0 2 cbr 210 ------- 0 0.0 3.0 124 217
- 0.475 0 2 cbr 210 ------- 0 0.0 3.0 124 217
+ 0.475 1 2 cbr 500 ------- 0 1.0 3.0 93 218
- 0.475 1 2 cbr 500 ------- 0 1.0 3.0 93 218
r 0.475336 0 2 cbr 210 ------- 0 0.0 3.0 44 78
+ 0.475336 2 3 cbr 210 ------- 0 0.0 3.0 44 78
r 0.4758 1 2 cbr 500 ------- 0 1.0 3.0 33 77
+ 0.4758 2 3 cbr 500 ------- 0 1.0 3.0 33 77
- 0.477136 2 3 cbr 210 ------- 0 0.0 3.0 35 62
+ 0.47875 0 2 cbr 210 ------- 0 0.0 3.0 125 219
- 0.47875 0 2 cbr 210 ------- 0 0.0 3.0 125 219
- 0.478816 2 3 cbr 210 ------- 0 0.0 3.0 36 64